<VTKFile type="UnstructuredGrid" version="0.1" byte_order="LittleEndian" header_type="UInt64">
	<UnstructuredGrid>
		<Piece NumberOfPoints="6172" NumberOfCells="27040">
			<Points>
				<DataArray type="Float64" NumberOfComponents="3" Name="Coordinates" format="ascii">
					-0.025 -3.06161699786838e-18 0.001 -0.025 -3.06161699786838e-18 0.0 -0.025 -3.06161699786838e-18 0.25 -0.025 -3.06161699786838e-18 -0.001 -0.025 -3.06161699786838e-18 -0.25 -0.02252422169756047 -0.01084709347793897 0.001 -0.01558724504646831 -0.01954578706170077 0.001 -0.005563023348907778 -0.024373197804545613 0.001 0.0055630233489079636 -0.02437319780454557 0.001 0.0155872450464684 -0.01954578706170069 0.001 0.02252422169756051 -0.010847093477938882 0.001 0.025 8.269460797427575e-17 0.001 0.02252422169756045 0.01084709347793901 0.001 0.01558724504646831 0.01954578706170077 0.001 0.005563023348907824 0.024373197804545603 0.001 -0.005563023348907896 0.02437319780454558 0.001 -0.01558724504646836 0.019545787061700723 0.001 -0.02252422169756047 0.010847093477938961 0.001 -0.02252422169756047 -0.01084709347793897 0.0 -0.01558724504646831 -0.01954578706170077 0.0 -0.005563023348907778 -0.024373197804545613 0.0 0.0055630233489079636 -0.02437319780454557 0.0 0.0155872450464684 -0.01954578706170069 0.0 0.02252422169756051 -0.010847093477938882 0.0 0.025 8.269460797427575e-17 0.0 0.02252422169756045 0.01084709347793901 0.0 0.01558724504646831 0.01954578706170077 0.0 0.005563023348907824 0.024373197804545603 0.0 -0.005563023348907896 0.02437319780454558 0.0 -0.01558724504646836 0.019545787061700723 0.0 -0.02252422169756047 0.010847093477938961 0.0 -0.02252422169756047 -0.01084709347793897 0.25 -0.01558724504646831 -0.01954578706170077 0.25 -0.005563023348907778 -0.024373197804545613 0.25 0.0055630233489079636 -0.02437319780454557 0.25 0.0155872450464684 -0.01954578706170069 0.25 0.02252422169756051 -0.010847093477938882 0.25 0.025 8.269460797427575e-17 0.25 0.02252422169756045 0.01084709347793901 0.25 0.01558724504646831 0.01954578706170077 0.25 0.005563023348907824 0.024373197804545603 0.25 -0.005563023348907896 0.02437319780454558 0.25 -0.01558724504646836 0.019545787061700723 0.25 -0.02252422169756047 0.010847093477938961 0.25 -0.025 -3.06161699786838e-18 0.23917391304347832 -0.025 -3.06161699786838e-18 0.22834782608695658 -0.025 -3.06161699786838e-18 0.21752173913043482 -0.025 -3.06161699786838e-18 0.20669565217391309 -0.025 -3.06161699786838e-18 0.1958695652173914 -0.025 -3.06161699786838e-18 0.1850434782608696 -0.025 -3.06161699786838e-18 0.1742173913043479 -0.025 -3.06161699786838e-18 0.1633913043478261 -0.025 -3.06161699786838e-18 0.1525652173913044 -0.025 -3.06161699786838e-18 0.1417391304347827 -0.025 -3.06161699786838e-18 0.130913043478261 -0.025 -3.06161699786838e-18 0.1200869565217393 -0.025 -3.06161699786838e-18 0.1092608695652176 -0.025 -3.06161699786838e-18 0.09843478260869594 -0.025 -3.06161699786838e-18 0.08760869565217426 -0.025 -3.06161699786838e-18 0.07678260869565257 -0.025 -3.06161699786838e-18 0.06595652173913082 -0.025 -3.06161699786838e-18 0.05513043478260903 -0.025 -3.06161699786838e-18 0.044304347826087206 -0.025 -3.06161699786838e-18 0.03347826086956541 -0.025 -3.06161699786838e-18 0.02265217391304362 -0.025 -3.06161699786838e-18 0.01182608695652179 -0.02252422169756047 0.01084709347793897 -0.001 -0.01558724504646831 0.01954578706170077 -0.001 -0.005563023348907778 0.024373197804545613 -0.001 0.0055630233489079636 0.02437319780454557 -0.001 0.0155872450464684 0.01954578706170069 -0.001 0.02252422169756051 0.010847093477938882 -0.001 0.025 -8.269460797427575e-17 -0.001 0.02252422169756045 -0.01084709347793901 -0.001 0.01558724504646831 -0.01954578706170077 -0.001 0.005563023348907824 -0.024373197804545603 -0.001 -0.005563023348907896 -0.02437319780454558 -0.001 -0.01558724504646836 -0.019545787061700723 -0.001 -0.02252422169756047 -0.010847093477938961 -0.001 -0.02252422169756047 0.01084709347793897 -0.25 -0.01558724504646831 0.01954578706170077 -0.25 -0.005563023348907778 0.024373197804545613 -0.25 0.0055630233489079636 0.02437319780454557 -0.25 0.0155872450464684 0.01954578706170069 -0.25 0.02252422169756051 0.010847093477938882 -0.25 0.025 -8.269460797427575e-17 -0.25 0.02252422169756045 -0.01084709347793901 -0.25 0.01558724504646831 -0.01954578706170077 -0.25 0.005563023348907824 -0.024373197804545603 -0.25 -0.005563023348907896 -0.02437319780454558 -0.25 -0.01558724504646836 -0.019545787061700723 -0.25 -0.02252422169756047 -0.010847093477938961 -0.25 -0.025 3.06161699786838e-18 -0.23917391304347832 -0.025 3.06161699786838e-18 -0.22834782608695658 -0.025 3.06161699786838e-18 -0.21752173913043482 -0.025 3.06161699786838e-18 -0.20669565217391309 -0.025 3.06161699786838e-18 -0.1958695652173914 -0.025 3.06161699786838e-18 -0.1850434782608696 -0.025 3.06161699786838e-18 -0.1742173913043479 -0.025 3.06161699786838e-18 -0.1633913043478261 -0.025 3.06161699786838e-18 -0.1525652173913044 -0.025 3.06161699786838e-18 -0.1417391304347827 -0.025 3.06161699786838e-18 -0.130913043478261 -0.025 3.06161699786838e-18 -0.1200869565217393 -0.025 3.06161699786838e-18 -0.1092608695652176 -0.025 3.06161699786838e-18 -0.09843478260869594 -0.025 3.06161699786838e-18 -0.08760869565217426 -0.025 3.06161699786838e-18 -0.07678260869565257 -0.025 3.06161699786838e-18 -0.06595652173913082 -0.025 3.06161699786838e-18 -0.05513043478260903 -0.025 3.06161699786838e-18 -0.044304347826087206 -0.025 3.06161699786838e-18 -0.03347826086956541 -0.025 3.06161699786838e-18 -0.02265217391304362 -0.025 3.06161699786838e-18 -0.01182608695652179 -0.0011941758684901951 -0.0009523234767664636 0.001 -0.01002422169756048 0.00799405004806207 0.001 0.005563023348907904 -0.01155173701363864 0.001 0.01063233581656267 0.008479004875370027 0.001 -0.01060622443890429 -0.0084581817465404 0.001 -8.372310706973276e-5 0.01376878470020991 0.001 0.01340494237707782 -0.0031454668249109277 0.001 -0.003531936011790306 -0.014933139431922671 0.001 -0.015344664148701961 -0.0001204468686432712 0.001 -0.00781455330000162 0.016420454903629568 0.001 0.01426985811750366 -0.01127252109454728 0.001 0.00798910869878697 0.0163043822532646 0.001 0.01767334127872221 0.004160738697324906 0.001 -0.0011941758684901951 -0.0009523234767664654 0.0 -0.01002422169756048 0.007994050048062066 0.0 0.01063233581656267 0.008479004875370025 0.0 0.005563023348907905 -0.01155173701363864 0.0 -0.01043993794137748 -0.00832557268983231 0.0 -8.372310706973174e-5 0.01376878470020991 0.0 0.01340494237707782 -0.0031454668249109303 0.0 -0.0035177960034972113 -0.01492186315159035 0.0 -0.01533052414040886 -0.00010917058831095331 0.0 -0.007814553300001617 0.016420454903629568 0.0 0.00798910869878697 0.0163043822532646 0.0 0.01426985811750366 -0.01127252109454729 0.0 0.01767334127872221 0.0041607386973249024 0.0 -0.01514250814615284 -0.01989232130857771 0.2198184783701315 -0.006763404339325602 -0.0240677452567288 0.22489954797896788 -0.009642611545555102 -0.02306555966330597 0.21191235455678903 -0.01580972723719637 -0.01936627286509852 0.2291154047296292 -0.008490282190007092 -0.02351414698291325 0.03823156692108373 -0.005498430069682654 -0.02438785080257811 0.02510742681855492 -0.01508778153814475 -0.01993386185005852 0.03121048127449911 -0.0149718590486368 -0.020021074812001292 0.021569496292585432 -0.02203935476678086 -0.01180113729536157 0.02707246583480837 -0.02379124997198829 -0.007679610977801357 0.037309550225467294 0.02249968260647413 -0.010897902670143721 0.1794017819753592 0.01891150751536792 -0.01635099029099409 0.1862421269869326 0.02378976438452398 -0.007684211770171003 0.188573753702402 -0.008801628446252046 0.02339938752818387 0.1833059099843079 -0.007664081242996409 0.023796257241439262 0.17494198715805748 0.00310432329663768 0.02480651480700086 0.1809682762658176 0.01864641991794453 0.01665265817350737 0.2263066675768163 0.01209926331402825 0.021877107378668922 0.2375724716337244 0.00948020945089663 0.02313278255565314 0.2238788756693823 0.02481133294708301 0.003065576192005818 0.01077323600286664 0.02383662580916347 -0.00753759046605226 0.016602693468084632 0.02476871187287621 0.003392773520063058 0.02162132567354082 0.015682259100470382 -0.0194696366043569 0.2034546678412808 0.01865937961879126 -0.01663813547972962 0.2154306745076798 0.02264723717293924 -0.010587853816172521 0.20635129018189638 0.024095377188326862 -0.006664292772099492 0.00847339134209575 -0.02348627068710664 -0.008567093393441864 0.18798121842731721 -0.016931942372773862 -0.01839318698554074 0.1857146610011311 -0.02324263251251685 -0.009207607392156487 0.1790464261227713 -0.01842075014951832 -0.016901951482862 0.1718899194126829 -0.023724332761931043 -0.00788390988033004 0.1701843318616948 0.02495389969335665 -0.0015175276254140771 0.044530939332478446 0.024740312071695372 0.003594017055486036 0.05260541154897302 0.022691236018068873 0.01049322676645722 0.04259274413616667 0.02085295028274232 0.01378965063029071 0.056263096540288805 0.02499560119015185 0.00046895750647536733 0.1366805784878284 0.02485021367077966 0.002732559334505946 0.14921984418983 0.02294772742112034 0.009919768455259494 0.13858563328834628 -0.0219264983793925 0.01200952408792697 0.1583773554758911 -0.02280867247896492 0.01023545112573492 0.17051225950867563 0.01485051896470573 -0.02011124278802569 0.07737606922783576 0.012721208478991651 -0.021521404573912713 0.06732103342247034 0.005180388720398266 -0.02445738278527714 0.07743751885964573 0.0025834126608543107 -0.024866161324654388 0.06809285876775785 -0.0230063089833519 0.009783135845041799 0.04985633942536559 0.02327663174575546 0.00912131649338455 0.1921074686189032 0.02346376909526909 0.008628530572692847 0.20505953566375168 0.019073297207043118 0.01616197183674694 0.2003840772775969 0.01070520910718059 -0.02259200075184882 0.0583078765399928 0.01935553342987891 -0.0158228734951917 0.05798589551968977 -0.02343881050207451 0.008696100404655042 0.1803388414485135 -0.0175998325465915 0.01775516528596505 0.06085824
[...]
			<CellData>
				<DataArray type="Float64" Name="speed_of_sound" format="ascii">
					694.4379021914054 694.4379021914054 694.4379021914054 694.4379021914054 694.4379021914054 694.4379021914054 694.4379021914054 694.4379021914054 694.4379021914054 694.4379021914054 694.4379021914054 694.4379021914054 694.4379021914054 694.4379021914054 694.4379021914054 694.4379021914054 694.4379021914054 694.4379021914054 694.4379021914054 694.4379021914054 694.4379021914054 694.4379021914054 694.4379021914054 694.4379021914054 694.4379021914054 694.4379021914054 694.4379021914054 694.4379021914054 694.4379021914054 694.4379021914054 694.4379021914054 694.4379021914054 694.4379021914054 694.4379021914054 694.4379021914054 694.4379021914054 694.4379021914054 694.4379021914054 694.4379021914054 694.4379021914054 694.4379021914054 694.4379021914054 694.4379021914054 694.4379021914054 694.4379021914054 694.4379021914054 694.4379021914054 694.4379021914054 694.4379021914054 694.4379021914054 694.4379021914054 694.4379021914054 694.4379021914054 694.4379021914054 694.4379021914054 694.4379021914054 694.4379021914054 694.4379021914054 694.4379021914054 694.4379021914054 694.4379021914054 694.4379021914054 694.4379021914054 694.4379021914054 694.4379021914054 694.4379021914054 694.4379021914054 694.4379021914054 694.4379021914054 694.4379021914054 694.4379021914054 694.4379021914054 694.4379021914054 694.4379021914054 694.4379021914054 694.4379021914054 694.4379021914054 694.4379021914054 694.4379021914054 694.4379021914054 694.4379021914054 694.4379021914054 694.4379021914054 694.4379021914054 694.4379021914054 694.4379021914054 694.4379021914054 694.4379021914054 694.4379021914054 694.4379021914054 694.4379021914054 694.4379021914054 694.4379021914054 694.4379021914054 694.4379021914054 694.4379021914054 694.4379021914054 694.4379021914054 694.4379021914054 694.4379021914054 694.4379021914054 694.4379021914054 694.4379021914054 694.4379021914054 694.4379021914054 694.4379021914054 694.4379021914054 694.4379021914054 694.4379021914054 694.4379021914054 694.4379021914054 694.4379021914054 694.4379021914054 694.4379021914054 694.4379021914054 694.4379021914054 694.4379021914054 694.4379021914054 694.4379021914054 694.4379021914054 694.4379021914054 694.4379021914054 694.4379021914054 694.4379021914054 694.4379021914054 694.4379021914054 694.4379021914054 694.4379021914054 694.4379021914054 694.4379021914054 694.4379021914054 694.4379021914054 694.4379021914054 694.4379021914054 694.4379021914054 694.4379021914054 694.4379021914054 694.4379021914054 694.4379021914054 694.4379021914054 694.4379021914054 694.4379021914054 694.4379021914054 694.4379021914054 694.4379021914054 694.4379021914054 694.4379021914054 694.4379021914054 694.4379021914054 694.4379021914054 694.4379021914054 694.4379021914054 694.4379021914054 694.4379021914054 694.4379021914054 694.4379021914054 694.4379021914054 694.4379021914054 694.4379021914054 694.4379021914054 694.4379021914054 694.4379021914054 694.4379021914054 694.4379021914054 694.4379021914054 694.4379021914054 694.4379021914054 694.4379021914054 694.4379021914054 694.4379021914054 694.4379021914054 694.4379021914054 694.4379021914054 694.4379021914054 694.4379021914054 694.4379021914054 694.4379021914054 694.4379021914054 694.4379021914054 694.4379021914054 694.4379021914054 694.4379021914054 694.4379021914054 694.4379021914054 694.4379021914054 694.4379021914054 694.4379021914054 694.4379021914054 694.4379021914054 694.4379021914054 694.4379021914054 694.4379021914054 694.4379021914054 694.4379021914054 694.4379021914054 694.4379021914054 694.4379021914054 694.4379021914054 694.4379021914054 694.4379021914054 694.4379021914054 694.4379021914054 694.4379021914054 694.4379021914054 694.4379021914054 694.4379021914054 694.4379021914054 694.4379021914054 694.4379021914054 694.4379021914054 694.4379021914054 694.4379021914054 694.4379021914054 694.4379021914054 694.4379021914054 694.4379021914054 694.4379021914054 694.4379021914054 694.4379021914054 694.4379021914054 694.4379021914054 694.4379021914054 694.4379021914054 694.4379021914054 694.4379021914054 694.4379021914054 694.4379021914054 694.4379021914054 694.4379021914054 694.4379021914054 694.4379021914054 694.4379021914054 694.4379021914054 694.4379021914054 694.4379021914054 694.4379021914054 694.4379021914054 694.4379021914054 694.4379021914054 694.4379021914054 694.4379021914054 694.4379021914054 694.4379021914054 694.4379021914054 694.4379021914054 694.4379021914054 694.4379021914054 694.4379021914054 694.4379021914054 694.4379021914054 694.4379021914054 694.4379021914054 694.4379021914054 694.4379021914054 694.4379021914054 694.4379021914054 694.4379021914054 694.4379021914054 694.4379021914054 694.4379021914054 694.4379021914054 694.4379021914054 694.4379021914054 694.4379021914054 694.4379021914054 694.4379021914054 694.4379021914054 694.4379021914054 694.4379021914054 694.4379021914054 694.4379021914054 694.4379021914054 694.4379021914054 694.4379021914054 694.4379021914054 694.4379021914054 694.4379021914054 694.4379021914054 694.4379021914054 694.4379021914054 694.4379021914054 694.4379021914054 694.4379021914054 694.4379021914054 694.4379021914054 694.4379021914054 694.4379021914054 694.4379021914054 694.4379021914054 694.4379021914054 694.4379021914054 694.4379021914054 694.4379021914054 694.4379021914054 694.4379021914054 694.4379021914054 694.4379021914054 694.4379021914054 694.4379021914054 694.4379021914054 694.4379021914054 694.4379021914054 694.4379021914054 694.4379021914054 347.2189510957027 347.2189510957027 694.4379021914054 694.4379021914054 694.4379021914054 694.4379021914054 347.2189510957027 694.4379021914054 694.4379021914054 694.4379021914054 694.4379021914054 347.2189510957027 347.2189510957027 347.2189510957027 347.2189510957027 347.2189510957027 347.2189510957027 347.2189510957027 347.2189510957027 347.2189510957027 347.2189510957027 347.2189510957027 347.2189510957027 347.2189510957027 694.4379021914054 694.4379021914054 694.4379021914054 694.4379021914054 694.4379021914054 694.4379021914054 694.4379021914054 694.4379021914054 694.4379021914054 694.4379021914054 694.4379021914054 694.4379021914054 694.4379021914054 694.4379021914054 694.4379021914054 694.4379021914054 694.4379021914054 694.4379021914054 694.4379021914054 694.4379021914054 694.4379021914054 694.4379021914054 694.4379021914054 694.4379021914054 694.4379021914054 694.4379021914054 694.4379021914054 694.4379021914054 694.4379021914054 694.4379021914054 694.4379021914054 694.4379021914054 694.4379021914054 694.4379021914054 694.4379021914054 694.4379021914054 694.4379021914054 694.4379021914054 694.4379021914054 694.4379021914054 694.4379021914054 694.4379021914054 694.4379021914054 694.4379021914054 694.4379021914054 694.4379021914054 694.4379021914054 694.4379021914054 694.4379021914054 694.4379021914054 694.4379021914054 694.4379021914054 694.4379021914054 694.4379021914054 694.4379021914054 694.4379021914054 694.4379021914054 694.4379021914054 694.4379021914054 694.4379021914054 694.4379021914054 694.4379021914054 694.4379021914054 694.4379021914054 694.4379021914054 694.4379021914054 694.4379021914054 694.4379021914054 694.4379021914054 694.4379021914054 694.4379021914054 694.4379021914054 694.4379021914054 694.4379021914054 694.4379021914054 694.4379021914054 694.4379021914054 694.4379021914054 694.4379021914054 694.4379021914054 694.4379021914054 694.4379021914054 694.4379021914054 694.4379021914054 694.4379021914054 694.4379021914054 694.4379021914054 694.4379021914054 694.4379021914054 694.4379021914054 694.4379021914054 694.4379021914054 694.4379021914054 694.4379021914054 694.4379021914054 694.4379021914054 694.4379021914054 694.4379021914054 694.4379021914054 694.4379021914054 694.4379021914054 694.4379021914054 694.4379021914054 694.4379021914054 694.4379021914054 694.4379021914054 694.4379021914054 694.4379021914054 694.4379021914054 694.4379021914054 694.4379021914054 694.4379021914054 694.4379021914054 694.4379021914054 694.4379021914054 694.4379021914054 694.4379021914054 694.4379021914054 694.4379021914054 694.4379021914054 694.4379021914054 694.4379021914054 694.4379021914054 694.4379021914054 694.4379021914054 694.4379021914054 694.4379021914054 694.4379021914054 694.4379021914054 694.4379021914054 694.4379021914054 694.4379021914054 694.4379021914054 694.4379021914054 694.4379021914054 694.4379021914054 694.4379021914054 694.4379021914054 694.4379021914054 694.4379021914054 694.4379021914054 694.4379021914054 694.4379021914054 694.4379021914054 694.4379021914054 694.4379021914054 694.4379021914054 694.4379021914054 694.4379021914054 694.4379021914054 694.4379021914054 694.4379021914054 694.4379021914054 694.4379021914054 694.4379021914054 694.4379021914054 694.4379021914054 694.4379021914054 694.4379021914054 694.4379021914054 694.4379021914054 694.4379021914054 694.4379021914054 694.4379021914054 694.4379021914054 694.4379021914054 694.4379021914054 694.4379021914054 694.4379021914054 694.4379021914054 694.4379021914054 694.4379021914054 694.4379021914054 694.4379021914054 694.4379021914054 694.4379021914054 694.4379021914054 694.4379021914054 694.4379021914054 694.4379021914054 694.4379021914054 694.4379021914054 694.4379021914054 694.4379021914054 694.4379021914054 694.4379021914054 694.4379021914054 694.4379021914054 694.4379021914054 694.4379021914054 694.4379021914054 694.4379021914054 694.4379021914054 694.4379021914054 694.4379021914054 694.4379021914054 694.4379021914054 694.4379021914054 694.4379021914054 694.4379021914054 694.4379021914054 694.4379021914054 694.4379021914054 694.4379021914054 694.4379021914054 694.4379021914054 694.4379021914054 694.4379021914054 694.4379021914054 694.4379021914054 694.4379021914054 694.4379021914054 694.4379021914054 694.4379021914054 694.4379021914054 694.4379021914054 347.2189510957027 694.4379021914054 694.4379021914054 694.4379021914054 694.4379021914054 347.2189510957027 347.2189510957027 347.2189510957027 694.4379021914054 694.4379021914054 694.4379021914054 694.4379021914054 347.2189510957027 694.4379021914054 694.4379021914054 694.4379021914054 694.4379021914054 347.2189510957027 347.2189510957027 347.2189510957027 347.2189510957027 347.2189510957027 347.2189510957027 347.2189510957027 347.2189510957027 347.2189510957027 347.2189510957027 347.2189510957027 347.2189510957027 347.2189510957027 347.2189510957027 347.2189510957027 347.2189510957027 347.2189510957027 347.2189510957027 347.2189510957027 694.4379021914054 694.4379021914054 694.4379021914054 694.4379021914054 694.4379021914054 694.4379021914054 694.4379021914054 694.4379021914054 694.4379021914054 694.4379021914054 694.4379021914054 694.4379021914054 694.4379021914054 694.4379021914054 694.4379021914054 694.4379021914054 694.4379021914054 694.4379021914054 694.4379021914054 694.4379021914054 694.4379021914054 694.4379021914054 694.4379021914054 694.4379021914054 694.4379021914054 694.4379021914054 694.4379021914054 694.4379021914054 694.4379021914054 694.4379021914054 694.4379021914054 694.4379021914054 694.4379021914054 694.4379021914054 694.4379021914054 694.4379021914054 347.2189510957027 694.4379021914054 347.2189510957027 347.2189510957027 694.4379021914054 694.4379021914054 347.2189510957027 347.2189510957027 347.2189510957027 347.2189510957027 347.2189510957027 347.2189510957027 694.4379021914054 694.4379021914054 694.4379021914054 694.4379021914054 694.4379021914054 694.4379021914054 694.4379021914054 694.4379021914054 694.4379021914054 694.4379021914054 694.4379021914054 347.2189510957027 694.4379021914054 694.4379021914054 347.2189510957027 694.4379021914054 347.2189510957027 694.4379021914054 694.4379021914054 347.2189510957027 694.4379021914054 694.4379021914054 347.2189510957027 347.2189510957027 347.2189510957027 694.4379021914054 694.4379021914054 694.4379021914054 694.4379021914054 347.2189510957027 347.2189510957027 347.2189510957027 347.2189510957027 347.2189510957027 347.2189510957027 347.2189510957027 347.2189510957027 347.2189510957027 347.2189510957027 347.2189510957027 347.2189510957027 694.4379021914054 694.4379021914054 694.4379021914054 694.4379021914054 694.4379021914054 694.4379021914054 694.4379021914054 694.4379021914054 694.4379021914054 694.4379021914054 694.4379021914054 694.4379021914054 694.4379021914054 694.4379021914054 694.4379021914054 694.4379021914054 694.4379021914054 694.4379021914054 694.4379021914054 694.4379021914054 694.4379021914054 694.4379021914054 694.4379021914054 694.4379021914054 694.4379021914054 694.4379021914054 694.4379021914054 694.4379021914054 694.4379021914054 694.4379021914054 694.4379021914054 694.4379021914054 694.4379021914054 694.4379021914054 694.4379021914054 694.4379021914054 694.4379021914054 694.4379021914054 694.4379021914054 694.4379021914054 694.4379021914054 694.4379021914054 694.4379021914054 694.4379021914054 694.4379021914054 694.4379021914054 694.4379021914054 694.4379021914054 694.4379021914054 694.4379021914054 694.4379021914054 694.4379021914054 694.4379021914054 694.4379021914054 694.4379021914054 694.4379021914054 694.4379021914054 694.4379021914054 694.4379021914054 347.2189510957027 694.4379021914054 694.4379021914054 694.4379021914054 347.2189510957027 694.4379021914054 347.2189510957027 347.2189510957027 694.4379021914054 694.4379021914054 694.4379021914054 694.4379021914054 694.4379021914054 694.4379021914054 694.4379021914054 694.4379021914054 694.4379021914054 694.4379021914054 694.4379021914054 347.2189510957027 694.4379021914054 347.2189510957027 694.4379021914054 694.4379021914054 347.2189510957027 347.2189510957027 347.2189510957027 347.2189510957027 347.2189510957027 347.2189510957027 694.4379021914054 694.4379021914054 694.4379021914054 694.4379021914054 694.4379021914054 694.4379021914054 694.4379021914054 694.4379021914054 694.4379021914054 694.4379021914054 694.4379021914054 694.4379021914054 694.4379021914054 694.4379021914054 694.4379021914054 694.4379021914054 694.4379021914054 694.4379021914054 694.4379021914054 694.4379021914054 694.4379021914054 694.4379021914054 694.4379021914054 694.4379021914054 694.4379021914054 694.4379021914054 694.4379021914054 694.4379021914054 694.4379021914054 694.4379021914054 694.4379021914054 694.4379021914054 694.4379021914054 694.4379021914054 694.4379021914054 694.4379021914054 694.4379021914054 694.4379021914054 694.4379021914054 694.4379021914054 694.4379021914054 694.4379021914054 694.4379021914054 347.2189510957027 347.2189510957027 694.4379021914054 347.2189510957027 694.4379021914054 694.4379021914054 694.4379021914054 694.4379021914054 694.4379021914054 694.4379021914054 347.2189510957027 694.4379021914054 347.2189510957027 694.4379021914054 347.2189510957027 694.4379021914054 694.4379021914054 694.4379021914054 694.4379021914054 694.4379021914054 347.2189510957027 347.2189510957027 347.2189510957027 347.2189510957027 347.2189510957027 347.2189510957027 347.2189510957027 347.2189510957027 347.2189510957027 347.2189510957027 347.2189510957027 347.2189510957027 347.2189510957027 347.2189510957027 347.2189510957027 347.2189510957027 347.2189510957027 347.2189510957027 694.4379021914054 694.4379021914054 694.4379021914054 694.4379021914054 694.4379021914054 694.4379021914054 694.4379021914054 694.4379021914054 694.4379021914054 694.4379021914054 694.4379021914054 694.4379021914054 694.4379021914054 694.4379021914054 694.4379021914054 694.4379021914054 694.4379021914054 694.4379021914054 694.4379021914054 694.4379021914054 347.2189510957027 694.4379021914054 694.4379021914054 694.4379021914054 694.4379021914054 347.2189510957027 347.2189510957027 347.2189510957027 694.4379021914054 694.4379021914054 694.4379021914054 347.2189510957027 694.4379021914054 694.4379021914054 694.4379021914054 347.2189510957027 347.2189510957027 347.2189510957027 694.4379021914054 694.4379021914054 694.4379021914054 347.2189510957027 347.2189510957027 694.4379021914054 694.4379021914054 347.2189510957027 694.4379021914054 694.4379021914054 347.2189510957027 694.4379021914054 347.2189510957027 694.4379021914054 347.2189510957027 347.2189510957027 347.2189510957027 347.2189510957027 347.2189510957027 347.2189510957027 347.2189510957027 347.2189510957027 347.2189510957027 347.2189510957027 347.2189510957027 347.2189510957027 347.2189510957027 347.2189510957027 347.2189510957027 694.4379021914054 694.4379021914054 694.4379021914054 694.4379021914054 694.4379021914054 694.4379021914054 694.4379021914054 694.4379021914054 694.4379021914054 694.4379021914054 694.4379021914054 694.4379021914054 694.4379021914054 694.4379021914054 694.4379021914054 694.4379021914054 347.2189510957027 694.4379021914054 694.4379021914054 694.4379021914054 347.2189510957027 347.2189510957027 347.2189510957027 694.4379021914054 694.4379021914054 694.4379021914054 694.4379021914054 694.4379021914054 694.4379021914054 694.4379021914054 694.4379021914054 694.4379021914054 694.4379021914054 694.4379021914054 694.4379021914054 694.4379021914054 694.4379021914054 694.4379021914054 694.4379021914054 694.4379021914054 694.4379021914054 694.4379021914054 694.4379021914054 694.4379021914054 694.4379021914054 694.4379021914054 694.4379021914054 347.2189510957027 347.2189510957027 694.4379021914054 347.2189510957027 694.4379021914054 694.4379021914054 694.4379021914054 694.4379021914054 347.2189510957027 694.4379021914054 694.4379021914054 694.4379021914054 694.4379021914054 694.4379021914054 694.4379021914054 694.4379021914054 694.4379021914054 347.2189510957027 347.2189510957027 347.2189510957027 347.2189510957027 347.2189510957027 347.2189510957027 347.2189510957027 347.2189510957027 347.2189510957027 347.2189510957027 347.2189510957027 347.2189510957027 347.2189510957027 347.2189510957027 347.2189510957027 347.2189510957027 694.4379021914054 694.4379021914054 694.4379021914054 694.4379021914054 694.4379021914054 694.4379021914054 694.4379021914054 694.4379021914054 694.4379021914054 694.4379021914054 694.4379021914054 694.4379021914054 694.4379021914054 694.4379021914054 694.4379021914054 694.4379021914054 694.4379021914054 694.4379021914054 694.4379021914054 694.4379021914054 694.4379021914054 694.4379021914054 694.4379021914054 347.2189510957027 694.4379021914054 694.4379021914054 694.4379021914054 694.4379021914054 694.4379021914054 347.2189510957027 347.2189510957027 347.2189510957027 694.4379021914054 694.4379021914054 694.4379021914054 694.4379021914054 694.4379021914054 694.4379021914054 694.4379021914054 694.4379021914054 694.4379021914054 694.4379021914054 694.4379021914054 694.4379021914054 694.4379021914054 694.4379021914054 694.4379021914054 694.4379021914054 694.4379021914054 694.4379021914054 694.4379021914054 694.4379021914054 694.4379021914054 694.4379021914054 694.4379021914054 694.4379021914054 694.4379021914054 694.4379021914054 694.4379021914054 694.4379021914054 694.4379021914054 694.4379021914054 694.4379021914054 694.4379021914054 694.4379021914054 694.4379021914054 694.4379021914054 694.4379021914054 694.4379021914054 694.4379021914054 694.4379021914054 694.4379021914054 694.4379021914054 694.4379021914054 694.4379021914054 694.4379021914054 694.4379021914054 694.4379021914054 694.4379021914054 694.4379021914054 694.4379021914054 694.4379021914054 694.4379021914054 694.4379021914054 694.4379021914054 694.4379021914054 694.4379021914054 694.4379021914054 694.4379021914054 694.4379021914054 694.4379021914054 694.4379021914054 694.4379021914054 694.4379021914054 694.4379021914054 694.4379021914054 694.4379021914054 694.4379021914054 694.4379021914054 694.4379021914054 694.4379021914054 694.4379021914054 694.4379021914054 694.4379021914054 694.4379021914054 694.4379021914054 694.4379021914054 694.4379021914054 694.4379021914054 694.4379021914054 694.4379021914054 694.4379021914054 694.4379021914054 694.4379021914054 694.4379021914054 694.4379021914054 694.4379021914054 694.4379021914054 694.4379021914054 694.4379021914054 694.4