<VTKFile type="UnstructuredGrid" version="0.1" byte_order="LittleEndian" header_type="UInt64">
	<UnstructuredGrid>
		<Piece NumberOfPoints="1006" NumberOfCells="3380">
			<Points>
				<DataArray type="Float64" NumberOfComponents="3" Name="Coordinates" format="ascii">
					-0.025 -3.06161699786838e-18 0.001 -0.025 -3.06161699786838e-18 0.0 -0.025 -3.06161699786838e-18 0.25 -0.025 -3.06161699786838e-18 -0.001 -0.025 -3.06161699786838e-18 -0.25 -0.02252422169756047 -0.01084709347793897 0.001 -0.01558724504646831 -0.01954578706170077 0.001 -0.005563023348907778 -0.024373197804545613 0.001 0.0055630233489079636 -0.02437319780454557 0.001 0.0155872450464684 -0.01954578706170069 0.001 0.02252422169756051 -0.010847093477938882 0.001 0.025 8.269460797427575e-17 0.001 0.02252422169756045 0.01084709347793901 0.001 0.01558724504646831 0.01954578706170077 0.001 0.005563023348907824 0.024373197804545603 0.001 -0.005563023348907896 0.02437319780454558 0.001 -0.01558724504646836 0.019545787061700723 0.001 -0.02252422169756047 0.010847093477938961 0.001 -0.02252422169756047 -0.01084709347793897 0.0 -0.01558724504646831 -0.01954578706170077 0.0 -0.005563023348907778 -0.024373197804545613 0.0 0.0055630233489079636 -0.02437319780454557 0.0 0.0155872450464684 -0.01954578706170069 0.0 0.02252422169756051 -0.010847093477938882 0.0 0.025 8.269460797427575e-17 0.0 0.02252422169756045 0.01084709347793901 0.0 0.01558724504646831 0.01954578706170077 0.0 0.005563023348907824 0.024373197804545603 0.0 -0.005563023348907896 0.02437319780454558 0.0 -0.01558724504646836 0.019545787061700723 0.0 -0.02252422169756047 0.010847093477938961 0.0 -0.02252422169756047 -0.01084709347793897 0.25 -0.01558724504646831 -0.01954578706170077 0.25 -0.005563023348907778 -0.024373197804545613 0.25 0.0055630233489079636 -0.02437319780454557 0.25 0.0155872450464684 -0.01954578706170069 0.25 0.02252422169756051 -0.010847093477938882 0.25 0.025 8.269460797427575e-17 0.25 0.02252422169756045 0.01084709347793901 0.25 0.01558724504646831 0.01954578706170077 0.25 0.005563023348907824 0.024373197804545603 0.25 -0.005563023348907896 0.02437319780454558 0.25 -0.01558724504646836 0.019545787061700723 0.25 -0.02252422169756047 0.010847093477938961 0.25 -0.025 -3.06161699786838e-18 0.23917391304347832 -0.025 -3.06161699786838e-18 0.22834782608695658 -0.025 -3.06161699786838e-18 0.21752173913043482 -0.025 -3.06161699786838e-18 0.20669565217391309 -0.025 -3.06161699786838e-18 0.1958695652173914 -0.025 -3.06161699786838e-18 0.1850434782608696 -0.025 -3.06161699786838e-18 0.1742173913043479 -0.025 -3.06161699786838e-18 0.1633913043478261 -0.025 -3.06161699786838e-18 0.1525652173913044 -0.025 -3.06161699786838e-18 0.1417391304347827 -0.025 -3.06161699786838e-18 0.130913043478261 -0.025 -3.06161699786838e-18 0.1200869565217393 -0.025 -3.06161699786838e-18 0.1092608695652176 -0.025 -3.06161699786838e-18 0.09843478260869594 -0.025 -3.06161699786838e-18 0.08760869565217426 -0.025 -3.06161699786838e-18 0.07678260869565257 -0.025 -3.06161699786838e-18 0.06595652173913082 -0.025 -3.06161699786838e-18 0.05513043478260903 -0.025 -3.06161699786838e-18 0.044304347826087206 -0.025 -3.06161699786838e-18 0.03347826086956541 -0.025 -3.06161699786838e-18 0.02265217391304362 -0.025 -3.06161699786838e-18 0.01182608695652179 -0.02252422169756047 0.01084709347793897 -0.001 -0.01558724504646831 0.01954578706170077 -0.001 -0.005563023348907778 0.024373197804545613 -0.001 0.0055630233489079636 0.02437319780454557 -0.001 0.0155872450464684 0.01954578706170069 -0.001 0.02252422169756051 0.010847093477938882 -0.001 0.025 -8.269460797427575e-17 -0.001 0.02252422169756045 -0.01084709347793901 -0.001 0.01558724504646831 -0.01954578706170077 -0.001 0.005563023348907824 -0.024373197804545603 -0.001 -0.005563023348907896 -0.02437319780454558 -0.001 -0.01558724504646836 -0.019545787061700723 -0.001 -0.02252422169756047 -0.010847093477938961 -0.001 -0.02252422169756047 0.01084709347793897 -0.25 -0.01558724504646831 0.01954578706170077 -0.25 -0.005563023348907778 0.024373197804545613 -0.25 0.0055630233489079636 0.02437319780454557 -0.25 0.0155872450464684 0.01954578706170069 -0.25 0.02252422169756051 0.010847093477938882 -0.25 0.025 -8.269460797427575e-17 -0.25 0.02252422169756045 -0.01084709347793901 -0.25 0.01558724504646831 -0.01954578706170077 -0.25 0.005563023348907824 -0.024373197804545603 -0.25 -0.005563023348907896 -0.02437319780454558 -0.25 -0.01558724504646836 -0.019545787061700723 -0.25 -0.02252422169756047 -0.010847093477938961 -0.25 -0.025 3.06161699786838e-18 -0.23917391304347832 -0.025 3.06161699786838e-18 -0.22834782608695658 -0.025 3.06161699786838e-18 -0.21752173913043482 -0.025 3.06161699786838e-18 -0.20669565217391309 -0.025 3.06161699786838e-18 -0.1958695652173914 -0.025 3.06161699786838e-18 -0.1850434782608696 -0.025 3.06161699786838e-18 -0.1742173913043479 -0.025 3.06161699786838e-18 -0.1633913043478261 -0.025 3.06161699786838e-18 -0.1525652173913044 -0.025 3.06161699786838e-18 -0.1417391304347827 -0.025 3.06161699786838e-18 -0.130913043478261 -0.025 3.06161699786838e-18 -0.1200869565217393 -0.025 3.06161699786838e-18 -0.1092608695652176 -0.025 3.06161699786838e-18 -0.09843478260869594 -0.025 3.06161699786838e-18 -0.08760869565217426 -0.025 3.06161699786838e-18 -0.07678260869565257 -0.025 3.06161699786838e-18 -0.06595652173913082 -0.025 3.06161699786838e-18 -0.05513043478260903 -0.025 3.06161699786838e-18 -0.044304347826087206 -0.025 3.06161699786838e-18 -0.03347826086956541 -0.025 3.06161699786838e-18 -0.02265217391304362 -0.025 3.06161699786838e-18 -0.01182608695652179 -0.0011941758684901951 -0.0009523234767664636 0.001 -0.01002422169756048 0.00799405004806207 0.001 0.005563023348907904 -0.01155173701363864 0.001 0.01063233581656267 0.008479004875370027 0.001 -0.01060622443890429 -0.0084581817465404 0.001 -8.372310706973276e-5 0.01376878470020991 0.001 0.01340494237707782 -0.0031454668249109277 0.001 -0.003531936011790306 -0.014933139431922671 0.001 -0.015344664148701961 -0.0001204468686432712 0.001 -0.00781455330000162 0.016420454903629568 0.001 0.01426985811750366 -0.01127252109454728 0.001 0.00798910869878697 0.0163043822532646 0.001 0.01767334127872221 0.004160738697324906 0.001 -0.0011941758684901951 -0.0009523234767664654 0.0 -0.01002422169756048 0.007994050048062066 0.0 0.01063233581656267 0.008479004875370025 0.0 0.005563023348907905 -0.01155173701363864 0.0 -0.01043993794137748 -0.00832557268983231 0.0 -8.372310706973174e-5 0.01376878470020991 0.0 0.01340494237707782 -0.0031454668249109303 0.0 -0.0035177960034972113 -0.01492186315159035 0.0 -0.01533052414040886 -0.00010917058831095331 0.0 -0.007814553300001617 0.016420454903629568 0.0 0.00798910869878697 0.0163043822532646 0.0 0.01426985811750366 -0.01127252109454729 0.0 0.01767334127872221 0.0041607386973249024 0.0 -0.01514250814615284 -0.01989232130857771 0.2198184783701315 -0.006763404339325602 -0.0240677452567288 0.22489954797896788 -0.009642611545555102 -0.02306555966330597 0.21191235455678903 -0.01580972723719637 -0.01936627286509852 0.2291154047296292 -0.008490282190007092 -0.02351414698291325 0.03823156692108373 -0.005498430069682654 -0.02438785080257811 0.02510742681855492 -0.01508778153814475 -0.01993386185005852 0.03121048127449911 -0.0149718590486368 -0.020021074812001292 0.021569496292585432 -0.02203935476678086 -0.01180113729536157 0.02707246583480837 -0.02379124997198829 -0.007679610977801357 0.037309550225467294 0.02249968260647413 -0.010897902670143721 0.1794017819753592 0.01891150751536792 -0.01635099029099409 0.1862421269869326 0.02378976438452398 -0.007684211770171003 0.188573753702402 -0.008801628446252046 0.02339938752818387 0.1833059099843079 -0.007664081242996409 0.023796257241439262 0.17494198715805748 0.00310432329663768 0.02480651480700086 0.1809682762658176 0.01864641991794453 0.01665265817350737 0.2263066675768163 0.01209926331402825 0.021877107378668922 0.2375724716337244 0.00948020945089663 0.02313278255565314 0.2238788756693823 0.02481133294708301 0.003065576192005818 0.01077323600286664 0.02383662580916347 -0.00753759046605226 0.016602693468084632 0.02476871187287621 0.003392773520063058 0.02162132567354082 0.015682259100470382 -0.0194696366043569 0.2034546678412808 0.01865937961879126 -0.01663813547972962 0.2154306745076798 0.02264723717293924 -0.010587853816172521 0.20635129018189638 0.024095377188326862 -0.006664292772099492 0.00847339134209575 -0.02348627068710664 -0.008567093393441864 0.18798121842731721 -0.016931942372773862 -0.01839318698554074 0.1857146610011311 -0.02324263251251685 -0.009207607392156487 0.1790464261227713 -0.01842075014951832 -0.016901951482862 0.1718899194126829 -0.023724332761931043 -0.00788390988033004 0.1701843318616948 0.02495389969335665 -0.0015175276254140771 0.044530939332478446 0.024740312071695372 0.003594017055486036 0.05260541154897302 0.022691236018068873 0.01049322676645722 0.04259274413616667 0.02085295028274232 0.01378965063029071 0.056263096540288805 0.02499560119015185 0.00046895750647536733 0.1366805784878284 0.02485021367077966 0.002732559334505946 0.14921984418983 0.02294772742112034 0.009919768455259494 0.13858563328834628 -0.0219264983793925 0.01200952408792697 0.1583773554758911 -0.02280867247896492 0.01023545112573492 0.17051225950867563 0.01485051896470573 -0.02011124278802569 0.07737606922783576 0.012721208478991651 -0.021521404573912713 0.06732103342247034 0.005180388720398266 -0.02445738278527714 0.07743751885964573 0.0025834126608543107 -0.024866161324654388 0.06809285876775785 -0.0230063089833519 0.009783135845041799 0.04985633942536559 0.02327663174575546 0.00912131649338455 0.1921074686189032 0.02346376909526909 0.008628530572692847 0.20505953566375168 0.019073297207043118 0.01616197183674694 0.2003840772775969 0.01070520910718059 -0.02259200075184882 0.0583078765399928 0.01935553342987891 -0.0158228734951917 0.05798589551968977 -0.02343881050207451 0.008696100404655042 0.1803388414485135 -0.0175998325465915 0.01775516528596505 0.060858249
[...]
			<PointData>
				<DataArray type="Float64" Name="phase" format="ascii">
					-0.5816132560407127 -0.5816016176050206 -2.157320721391016 -0.5813261391242487 -0.5620621062785129 -0.5816249251826089 -0.5816251014378836 -0.5816262786610031 -0.581626384021372 -0.5816295258214099 -0.5816232655924902 -0.5816218667481396 -0.5816269005359543 -0.5816209574575548 -0.5816255331485162 -0.5816177432178791 -0.5816197608974963 -0.5816254699895855 -0.5816134336759389 -0.581608648183528 -0.5816112063071874 -0.5816191435257093 -0.5816127797196562 -0.5815991356799586 -0.5815931754167938 -0.5815971893686198 -0.5815958922292798 -0.5816021499054624 -0.5816054990738231 -0.5815946629171791 -0.5815927899462849 -2.157323779023539 -2.157325250136922 -2.157321310599588 -2.1573237468559383 -2.157323414750332 -2.1573221742188 -2.157321300126678 -2.157324338479868 -2.15732392195445 -2.157323569314009 -2.157323085868855 -2.1573241380266848 -2.1573223131898756 -0.580906145115156 -0.5809106967269416 -0.5809170851308375 -0.5809260331107409 -0.580939001416113 -0.5809529731545464 -0.5809702756435142 -0.580990549107329 -0.5810131937660485 -0.5810391098322647 -0.5810669106997536 -0.5810984831969541 -0.5811322173347006 -0.5811683655469906 -0.5812081391532306 -0.5812501019016916 -0.5812950384745982 -0.5813443623948283 -0.5813940960968275 -0.5814481773003516 -0.5815055198552455 -0.5815627084275058 -0.5812798235909239 -0.5812978278271926 -0.5812977734111601 -0.5813207141867909 -0.5813245378446876 -0.5812977785262082 -0.5813223274484884 -0.581329099920957 -0.581315545280775 -0.5813339325124885 -0.5813485459420743 -0.5813380031448214 -0.5813630116564447 -0.5620636934503435 -0.5620635027016878 -0.5620620899041952 -0.5620638498290289 -0.5620636253237072 -0.5620613449141902 -0.5620628198450327 -0.5620639441302355 -0.5620622032869818 -0.5620638740392102 -0.5620627593197688 -0.5620629268181223 -0.562063726578274 -0.5620792550259135 -0.5621276816819852 -0.5622081246699359 -0.5623225552926636 -0.5624748767737912 -0.5626608027033723 -0.5628846893488549 -0.5631528845134898 -0.5634645674941038 -0.5638367698191722 -0.5642552481863561 -0.5647414211950319 -0.5653062410242788 -0.5659480673154027 -0.5666970944391565 -0.567563404829564 -0.5685746830497316 -0.5697810653848426 -0.5712120597516673 -0.5729321192471241 -0.5750901297065848 -0.5777836750567357 -0.5816344141995965 -0.5816258890179373 -0.5816257801012664 -0.5816301186184165 -0.581630757040193 -0.5816242785088004 -0.5816301030583465 -0.5816349359439569 -0.5816302570389699 -0.581625403928955 -0.5816324913500847 -0.5816272944373965 -0.5816297095132931 -0.581616701295566 -0.5816094631806451 -0.5816096155168948 -0.5816028020136538 -0.5816135619928147 -0.5816069604351478 -0.5816137033299349 -0.5816043946102425 -0.5816123601263098 -0.581601174983169 -0.5816153578180965 -0.5816038752147791 -0.581611592846159 -0.5809156486697398 -0.5809120298689839 -0.5809214397796205 -0.5809102476941037 -0.5814243058032209 -0.5814923829522078 -0.5814603910168649 -0.5815118430298108 -0.5814823096463821 -0.581428909251506 -0.5809622358550774 -0.5809514354151861 -0.5809484282819513 -0.580955974442558 -0.5809692288401325 -0.5809593281079872 -0.5809114168024667 -0.580906185482848 -0.5809129811892808 -0.5815719348440926 -0.5815391715373721 -0.5815110973066049 -0.5809293645581516 -0.5809184428911145 -0.5809263387179862 -0.5815833327651408 -0.5809490252549376 -0.5809515388823401 -0.5809626870936251 -0.5809740372539796 -0.5809775403934251 -0.5813928085853528 -0.5813554031450578 -0.5814023931486608 -0.5813382031872181 -0.5810518433297288 -0.5810206727248614 -0.581046831416948 -0.5810009180487814 -0.580976376985186 -0.5812481079576282 -0.5812894784924846 -0.5812477988974499 -0.5812862993250653 -0.5813679176393654 -0.5809433553284677 -0.5809279696518435 -0.5809330501652427 -0.5813291870074756 -0.5813309753662523 -0.580960504475485 -0.5813173737799344 -0.5813113656412608 -0.5813601305303685 -0.5814091876647063 -0.5814056907340058 -0.5812853439382717 -0.5811565541236731 -0.5811617395481814 -0.5811961659682123 -0.5814232796729569 -0.581369798229349 -0.5813796293270108 -0.5809390751547789 -0.58106269560798 -0.5810333520347402 -0.5810546276232428 -0.5810258894226835 -0.5810873917958143 -0.5811120832661207 -0.581115237892599 -0.5809780718746624 -0.5809831666569569 -0.5810010024345702 -0.5813302634503346 -0.5812730639222808 -0.5813120285596114 -0.5810492701637582 -0.5809171038039446 -0.5809111342289921 -0.5809168470277652 -0.5809100105760017 -0.5809435592348161 -0.5814712271750225 -0.5814940648030315 -0.5814389494574057 -0.5809126157620838 -0.5815243877766896 -0.581314395824607 -0.5812761282135354 -0.5814485168483287 -0.5812762041899762 -0.5815781099970878 -0.5813862575324206 -0.5811688027694101 -0.5811405908120206 -0.5811194075103989 -0.581557176756971 -0.5809214777108551 -0.58091664565107 -0.5814169149801597 -0.581549363914714 -0.5812467364601466 -0.5812211724221461 -0.5814720211275408 -0.5815635390669337 -0.581357058301503 -0.5813241183850779 -0.581036228596054 -0.5810366782957626 -0.5810661678798418 -0.5813740459887828 -0.5810846993854298 -0.5810797533511887 -0.5811117209100589 -0.5812434485196812 -0.581173647917442 -0.5811477552373208 -0.581187848886923 -0.5811364794459547 -0.5815246142848197 -0.5814921732392592 -0.5814626239626245 -0.581111125128822 -0.5809851549148113 -0.5809758154225779 -0.5810447953558554 -0.5810650134036849 -0.5810748142952427 -0.5811003179864549 -0.5810697730059956 -0.5810442752126311 -0.5809059323140345 -0.5809155792722808 -0.580909506034039 -0.5809069647165269 -0.5815630999929849 -0.5809088337326971 -0.580905883872941 -0.5809174062645969 -0.5810904503479295 -0.5809094157646171 -0.581281855338516 -0.5812349889022087 -0.5809465067546167 -0.5809459258097392 -0.58096225465821 -0.5813179867084513 -0.5809059566011966 -0.5809061115011949 -0.5809105280670103 -0.5815602758648601 -0.5811445287447586 -0.5809733876751841 -0.5809776537370767 -0.5809060936158458 -0.58091100590783 -0.5809056448792022 -0.5809564021720159 -0.5815639284395222 -0.5809065315771434 -0.5815247750055001 -0.5809318361076782 -0.5814933545587094 -0.5809221225924441 -0.5810774582416782 -0.5810953985655615 -0.5811121547936269 -0.5810686154088889 -0.5809969045727862 -0.5814409761636201 -0.5809434682520123 -0.5809322509788594 -0.5809429469122572 -0.5810103872461876 -0.5810132813611779 -0.5810153046509299 -0.5810450348140727 -0.5812418276763894 -0.5812708063008221 -0.5809198695741651 -0.5812470062650087 -0.5812754081484751 -0.5812335574570866 -0.5815559967879331 -0.5814468697330738 -0.5813980196067847 -0.5815305905392286 -0.5815808902021524 -0.5809057603129317 -0.5809084479118983 -0.5813111486940105 -0.5813614889167711 -0.5813517653873428 -0.5813858928151091 -0.5814022473423988 -0.5813566768202802 -0.5812757147952724 -0.581193792060285 -0.5809996116808587 -0.5810198491761718 -0.5810190785690252 -0.5811966630784552 -0.5812195505389646 -0.5810038809484678 -0.5811388150659247 -0.5809072216088299 -0.5809054612653973 -0.5814868526891488 -0.5814590421533261 -0.5814281210613621 -0.5815131938448055 -0.5809328311463918 -0.5809329035067856 -0.5809240098676659 -0.580919064703161 -0.5812182901726648 -0.5812414258963393 -0.5812079231016547 -0.5813610739874743 -0.5809173967387187 -0.5812297955080213 -0.5812979070616657 -0.5812387769539028 -0.5809371131450264 -0.5809242260423358 -0.5810182181077745 -0.5809192635660112 -0.5811118545171419 -0.5810441167859943 -0.5811834768346673 -0.5809332781016916 -0.5809107963582325 -0.5809084750353366 -0.5809347670660076 -0.5809446849821477 -0.5809868918005566 -0.5809951128916409 -0.5809858730098907 -0.5810298542055388 -0.5809092291653257 -0.5811806521909089 -0.5811458387210128 -0.581175598820231 -0.5811451144384846 -0.5811209387880291 -0.5813202686339297 -0.581311912826862 -0.5813714293735486 -0.5809519002245999 -0.5809628776963829 -0.5809441365266921 -0.581033580918014 -0.581018761377473 -0.580905787352998 -0.5809062333905041 -0.5810101763431457 -0.5809345043765821 -0.5809255014059512 -0.5810585408511518 -0.5809065774788902 -0.5809617446592209 -0.5811917553979593 -0.5809062172060371 -0.5811652153638391 -0.5811332950600081 -0.5811679901374501 -0.581125587881794 -0.5809123774085709 -0.5810397422988749 -0.5810093433530423 -0.5810237670803075 -0.5809940117418921 -0.5810767986456515 -0.5811081989098283 -0.5809968979161068 -0.5809952361442152 -0.5809405946108264 -0.5809310462224744 -0.58102632851175 -0.5810051798015917 -0.5809801205730194 -0.5812156172331885 -0.5812153197631121 -0.5811401848150469 -0.581427583581814 -0.5812793253756275 -0.5809174714956781 -0.5809880464860225 -0.58120333846536 -0.5809635941252721 -0.5812671830474474 -0.5809812621046966 -0.5809616554998109 -0.5811514321553249 -0.581178542518328 -0.5812642498835844 -0.5809469845660451 -0.5811773356394522 -0.5812065312076342 -0.5809277196709031 -0.5815587300189745 -0.5810574033098985 -0.5809259686743761 -0.5810681957951185 -0.5810867434137847 -0.5809643113399875 -0.5809731461064269 -0.5811330111002512 -0.581142853068637 -0.5811625783942896 -0.5812096300521551 -0.5814346884658546 -0.5814510676155141 -0.5810705378988975 -0.581106551694322 -0.5810753879785416 -0.5810898690731486 -0.5815736526037106 -0.581115779006862 -0.5810932851194746 -0.5811206056379596 -0.5814873857360181 -0.5809535269663368 -0.5810907723426737 -2.1573202531565787 -2.157317889819437 -2.157320458211396 -2.1573193473643264 -2.157314340109138 -2.1573249916922843 -2.1573236948341488 -2.157323910641546 -2.1573218640880785 -2.1573154762950937 -2.1573176827198677 -0.5813360745875193 -0.5813338739586716 -0.581335009700718 -0.5813139628545373 -0.5813250989353104 -0.5813245880781054 -0.5813412589655297 -0.5813276272072897 -0.5813185868078914 -0.5813343531486421 -0.581328420347966 -0.5813400708449363 -0.5813299469623309 -0.5621886703592138 -0.5621494340663756 -0.5622571879805056 -0.5624873779551572 -0.5624716756981927 -0.5623628053024138 -0.5721225646432592 -0.5745471290012796 -0.5733463723666603 -0.5753276635784418 -0.5741524072166597 -0.5722837775173193 -0.5656570516271867 -0.5661959573902997 -0.566408699243286 -0.5654891611380152 -0.5621384967377117 -0.5620831543818093 -0.5621565492804405 -0.5634360732882838 -0.5632271219673495 -0.562362001221215 -0.5622278637160105 -0.5623252190961683 -0.5627432546156194 -0.5629674634123928 -0.5627289728612069 -0.5683362741464166 -0.5680648430142373 -0.5675500210636834 -0.5625347132225293 -0.562350331499407 -0.5624234616846749 -0.5652731957136772 -0.5648656198731061 -0.5646029264421524 -0.5711497196065474 -0.5700859472863441 -0.5714519701825561 -0.5696282859708384 -0.5672185944699504 -0.5626400530082537 -0.5624767593842384 -0.5626835791847863 -0.5644254041967358 -0.5640475744670173 -0.5640963499777996 -0.5704430230054143 -0.5623267555105373 -0.569443324482673 -0.5680525586073784 -0.5688963166337954 -0.5639357659858847 -0.5636027035272622 -0.5638809388502761 -0.5626238217244632 -0.5647964244967502 -0.5644525119513557 -0.56427767654061 -0.5716606644764861 -0.5702172350579654 -0.5715658183066851 -0.5650203792998036 -0.5691488280314715 -0.568974967795681 -0.5720937770672886 -0.5704319816067073 -0.5707741866622656 -0.578108127085921 -0.5765299327119933 -0.5753075398379945 -0.5635329456405754 -0.5713946229892263 -0.5702993231663793 -0.5710126967170823 -0.5622110128737153 -0.5621385479576847 -0.5622070606398311 -0.5694481889596501 -0.5621196467125881 -0.563137460111475 -0.5629902720721589 -0.5640387067124644 -0.5670463314615538 -0.5673415872915134 -0.5787952783391432 -0.5783814650478414 -0.5758426152729784 -0.577076882011603 -0.5625510417001292 -0.5642878811079642 -0.564909436854133 -0.5644877758347149 -0.5627685297984676 -0.5639762636144521 -0.5737365300676854 -0.5746095320815457 -0.5726095548065436 -0.5644310229840815 -0.5640495782434061 -0.5737913310255107 -0.5778218037186486 -0.5635499311280874 -0.5622023795360943 -0.5719061053140784 -0.5729495659111911 -0.5628609307019748 -0.5621374819274402 -0.5621562691313876 -0.5622372702860003 -0.563814037976434 -0.5637787980798419 -0.5641859995763905 -0.566972013251748 -0.567379004809063 -0.5666527903430701 -0.5674254816522298 -0.567192667154889 -0.5678972050674854 -0.5706118870926535 -0.5674944558671863 -0.5681139116855708 -0.56721403418848 -0.5664322508580063 -0.5663433813814086 -0.5659881666717568 -0.5665556926566617 -0.5759597193438346 -0.574582321588716 -0.5734499805812807 -0.5664740114086219 -0.5669255977913785 -0.5634220410407585 -0.5635025967988033 -0.5634816771592369 -0.5643266880067437 -0.5647555274138827 -0.5642826197087472 -0.5639044098767904 -0.5620796792712952 -0.563310535866035 -0.5634159603648825 -0.5776753518833002 -0.5659963221260608 -0.565630009273027 -0.5653869585029527 -0.5621817817068022 -0.5621229142675029 -0.5621059296525195 -0.5620749855263084 -0.5622064275824769 -0.5621265397449241 -0.5775359051268911 -0.5654166800381304 -0.5651659828254585 -0.564903309992768 -0.5656579463288695 -0.5620787276303778 -0.5621365061690148 -0.5620734222723788 -0.5636257838273319 -0.5636960427749276 -0.5779021382866778 -0.5759411315682106 -0.5655817383030706 -0.565004369643251 -0.5655460492923932 -0.5746177785775578 -0.562264619300221 -0.5625949142917563 -0.5626137038374264 -0.5620735603171194 -0.5620783387865502 -0.5621304824095598 -0.5726864770452785 -0.5625700407203434 -0.562395591045935 -0.5625556545213383 -0.5684360519918525 -0.5693773827768944 -0.5680838592699724 -0.562212857262761 -0.5669174967264949 -0.5622428502870811 -0.5774233571409618 -0.5623727403184953 -0.5728830536197387 -0.5713192917561574 -0.5761364363783635 -0.5786752377958153 -0.5683201079797285 -0.5676643188717311 -0.5671753639430478 -0.566655177417133 -0.569053653417728 -0.5702591826028496 -0.5699933234174662 -0.5709334723500464 -0.5701272135975397 -0.563727829687244 -0.5627928838509004 -0.5627780666182476 -0.5629998963514811 -0.5627908363578031 -0.5690425622410268 -0.5630416920072682 -0.562904744392501 -0.5629690260470839 -0.5652511557679079 -0.5646763252890331 -0.5629637377132358 -0.5627866517132231 -0.562071523779063 -0.5627924676256941 -0.5624164328740062 -0.5622986112847551 -0.5620962923379874 -0.5702375774218686 -0.5648664672560347 -0.5627058084124034 -0.5639100415552278 -0.5621143973251489 -0.5636116193496185 -0.5773774071488004 -0.5633145491725089 -0.5743711989597624 -0.5733124504040688 -0.5722728818425948 -0.5754459772061025 -0.5693660485901493 -0.5686176842633672 -0.5774614165659087 -0.5620977332955609 -0.5620798965062576 -0.5644439832614578 -0.5649738404504703 -0.5624700911100823 -0.5623046233656368 -0.5621063303585034 -0.5691803454973331 -0.5689792757740131 -0.5624204207179826 -0.5624333634283274 -0.5625715658354206 -0.5621487625961861 -0.5620818309574965 -0.5630999110302268 -0.5705383090831095 -0.5620765763513401 -0.566238599943 -0.5655432033847223 -0.5660803016759918 -0.5655325904062815 -0.5632115135866671 -0.5658502565336103 -0.562209402732535 -0.5626867938527899 -0.562073411978501 -0.5620825506296713 -0.5626008327773895 -0.5620768139072947 -0.5668118410651387 -0.5660155652761177 -0.5624395837553542 -0.5620694749106091 -0.5658809140897909 -0.5623079361164456 -0.5653290376305071 -0.565938488010591 -0.5652046442016199 -0.5622261984705598 -0.5634687679861852 -0.5632307429700476 -0.5674124410407649 -0.5630231235595001 -0.5693070020318649 -0.5683445498867189 -0.5642557765964044 -0.56279517104815 -0.5627661025649184 -0.562972978319837 -0.5625489767725432 -0.5626001904764488 -0.5634024994203303 -0.5637898958399228 -0.5638696252597258 -0.5641925791621576 -0.5679435738641543 -0.5632698487402659 -0.5632132654666819 -0.5722411863392769 -0.5783425508189397 -0.5631546439964799 -0.5631253299374281 -0.5629362179437645 -0.563731694951503 -0.5635723901589331 -0.5633094004634969 -0.5636267338831212 -0.5629919643843329 -0.5644926981950114 -0.5681198290418534 -0.5678709330850998 -0.5622660937219608 -0.5661828182875462 -0.5623156978631475 -0.5640721637462248 -0.5632037875714034 -0.5623441606900205 -0.5632606361053278 -0.5667489170331335 -0.5724612084417802 -0.5660641663683194 -0.5730085028699645 -0.5743364925973589 -0.5645858631751388 -0.5650240843425812 -0.5646479197634527 -0.5651633654459756 -0.5627956702807467 -0.5625677159367372 -0.5650869796220901 -0.5620603614896197 -0.5620602712495655 -0.562059678636594 -0.5620603519649852 -0.5620597952193599 -0.5620594464967237 -0.5620579722529987 -0.5620596327569484 -0.5620600199262289 -0.5620596320822316 -0.5620607584938409 -0.5816195733956313 -0.5816278474089204 -0.581128439008296 -0.5809483206280383 -0.5812517095955652 -0.5813722735820462 -0.5809135083881842 -0.5810234989557834 -0.5810714097234163 -0.5809818550589689 -0.5814946584327694 -0.5811879755637877 -0.5809285982987604 -0.5809073212751887 -0.5810887267162 -0.5809253902961032 -0.5811647992643986 -0.5809227379088191 -0.5809698219841013 -0.5809966604741975 -0.5809986099814077 -0.5811998497956294 -0.5810537827178752 -0.5809081743730191 -0.5813079039106351 -0.5810548044429312 -0.5809069691844437 -0.5813112485873663 -0.5810970831001249 -0.5809655030676446 -0.5813127436987183 -0.5811646896793057 -0.581003691873996 -0.5809205302827362 -0.5809749676429432 -0.5814290316232874 -0.5809604531577436 -0.5814304425810253 -0.581097839333394 -0.580939679129287 -0.5809371021704867 -0.5809545964994327 -0.580937661825935 -0.5809569324169863 -0.581425487096598 -0.5811253353302541 -0.5810064803163056 -0.5811488035554649 -0.5811086189106727 -0.581147011978664 -0.5812299723065539 -0.58121842994897 -0.5809171001582095 -0.5815495159229588 -0.5809163673449509 -0.5815465535997646 -0.5810403878364157 -0.5810340311125838 -0.5809406721304368 -0.5812175327360007 -0.5809147869308825 -0.5815457783098454 -0.5809116095094403 -0.5811267831294766 -0.5809136801098044 -0.5810218137636494 -0.5810348397128553 -0.5812636923338297 -0.5814208179169548 -0.5810325247671256 -0.5812344922702339 -0.581349898686991 -0.5813534643193209 -0.5812811666234526 -0.580939408534852 -0.5809851207750143 -0.5809059001605928 -0.5811308534349341 -0.5809207279034316 -0.5811570686061309 -0.5810660222232977 -0.5812757346871384 -0.5810867497551196 -0.5812444715386808 -0.5813642943546568 -0.5809545078005441 -0.5813453900375872 -0.5809520593088454 -0.5812649766802219 -0.5814716175334738 -0.5810584313872547 -0.5815277468281945 -0.562645407342022 -0.5650871417206873 -0.5621739612066311 -0.563223059186778 -0.5706619244437103 -0.5673369566089339 -0.5640099925806967 -0.5746627198750948 -0.5623641313806513 -0.5660885583224443 -0.5688116473327529 -0.5623135261092965 -0.5620922976585085 -0.5628731988147998 -0.5658465941517717 -0.565734914273645 -0.5620937309590237 -0.5644867594671397 -0.5624553261137561 -0.5689023846545166 -0.564517368168685 -0.56209596611204 -0.562268821869651 -0.5629087667002546 -0.5635960138513435 -0.5635691194524435 -0.5629079786903074 -0.5645283580732416 -0.5635992537877971 -0.5624547741760622 -0.5622736949182314 -0.5725046373667189 -0.5724157779160958 -0.5625428624127276 -0.5627438997338277 -0.5646844295098157 -0.5653125799910155 -0.5723067377708884 -0.5680465236312869 -0.5665710002979976 -0.5665640699050211 -0.5665433338870447 -0.5682601685419184 -0.5649171027513631 -0.5622001821817707 -0.5626661830972082 -0.5641098487304502 -0.576908602431122 -0.5622213186458387 -0.5653678187089776 -0.577061640783937 -0.5625370761314261 -0.5650701095920527 -0.5694783515374936 -0.5652580558759177 -0.5626506933072687 -0.5625356362153047 -0.5633451570197072 -0.5621807806599441 -0.5621545784354288 -0.5769235108084605 -0.567647286344839 -0.5638154571927786 -0.5630501302563723 -0.572040973538593 -0.5633874890517616 -0.5638188333326922 -0.5632127238506475 -0.5699640193243543 -0.5642228599416064 -0.5631312771158405 -0.5703338419213972 -0.5678314232305585 -0.5641738653110453 -0.5707221617862795 -0.5669997495633152 -0.5674493628684295 -0.5621619069365836 -0.5701513409276352 -0.5630412948061118 -0.5710409270070076 -0.5651966151649849 -0.562704648421104 -0.563275922695473 -0.5620891994164685 -0.5639955611567717 -0.5620921754618696 -0.5621579976277977 -0.5742787264789099 -0.56240