<VTKFile type="UnstructuredGrid" version="0.1" byte_order="LittleEndian" header_type="UInt64">
	<UnstructuredGrid>
		<Piece NumberOfPoints="6172" NumberOfCells="3380">
			<Points>
				<DataArray type="Float64" NumberOfComponents="3" Name="coordinates" format="ascii">
					-0.025 -3.06161699786838e-18 0.001 -0.025 -3.06161699786838e-18 0.0 -0.025 -3.06161699786838e-18 0.25 -0.025 -3.06161699786838e-18 -0.001 -0.025 -3.06161699786838e-18 -0.25 -0.02252422169756047 -0.01084709347793897 0.001 -0.01558724504646831 -0.01954578706170077 0.001 -0.005563023348907778 -0.024373197804545613 0.001 0.0055630233489079636 -0.02437319780454557 0.001 0.0155872450464684 -0.01954578706170069 0.001 0.02252422169756051 -0.010847093477938882 0.001 0.025 8.269460797427575e-17 0.001 0.02252422169756045 0.01084709347793901 0.001 0.01558724504646831 0.01954578706170077 0.001 0.005563023348907824 0.024373197804545603 0.001 -0.005563023348907896 0.02437319780454558 0.001 -0.01558724504646836 0.019545787061700723 0.001 -0.02252422169756047 0.010847093477938961 0.001 -0.02252422169756047 -0.01084709347793897 0.0 -0.01558724504646831 -0.01954578706170077 0.0 -0.005563023348907778 -0.024373197804545613 0.0 0.0055630233489079636 -0.02437319780454557 0.0 0.0155872450464684 -0.01954578706170069 0.0 0.02252422169756051 -0.010847093477938882 0.0 0.025 8.269460797427575e-17 0.0 0.02252422169756045 0.01084709347793901 0.0 0.01558724504646831 0.01954578706170077 0.0 0.005563023348907824 0.024373197804545603 0.0 -0.005563023348907896 0.02437319780454558 0.0 -0.01558724504646836 0.019545787061700723 0.0 -0.02252422169756047 0.010847093477938961 0.0 -0.02252422169756047 -0.01084709347793897 0.25 -0.01558724504646831 -0.01954578706170077 0.25 -0.005563023348907778 -0.024373197804545613 0.25 0.0055630233489079636 -0.02437319780454557 0.25 0.0155872450464684 -0.01954578706170069 0.25 0.02252422169756051 -0.010847093477938882 0.25 0.025 8.269460797427575e-17 0.25 0.02252422169756045 0.01084709347793901 0.25 0.01558724504646831 0.01954578706170077 0.25 0.005563023348907824 0.024373197804545603 0.25 -0.005563023348907896 0.02437319780454558 0.25 -0.01558724504646836 0.019545787061700723 0.25 -0.02252422169756047 0.010847093477938961 0.25 -0.025 -3.06161699786838e-18 0.23917391304347832 -0.025 -3.06161699786838e-18 0.22834782608695658 -0.025 -3.06161699786838e-18 0.21752173913043482 -0.025 -3.06161699786838e-18 0.20669565217391309 -0.025 -3.06161699786838e-18 0.1958695652173914 -0.025 -3.06161699786838e-18 0.1850434782608696 -0.025 -3.06161699786838e-18 0.1742173913043479 -0.025 -3.06161699786838e-18 0.1633913043478261 -0.025 -3.06161699786838e-18 0.1525652173913044 -0.025 -3.06161699786838e-18 0.1417391304347827 -0.025 -3.06161699786838e-18 0.130913043478261 -0.025 -3.06161699786838e-18 0.1200869565217393 -0.025 -3.06161699786838e-18 0.1092608695652176 -0.025 -3.06161699786838e-18 0.09843478260869594 -0.025 -3.06161699786838e-18 0.08760869565217426 -0.025 -3.06161699786838e-18 0.07678260869565257 -0.025 -3.06161699786838e-18 0.06595652173913082 -0.025 -3.06161699786838e-18 0.05513043478260903 -0.025 -3.06161699786838e-18 0.044304347826087206 -0.025 -3.06161699786838e-18 0.03347826086956541 -0.025 -3.06161699786838e-18 0.02265217391304362 -0.025 -3.06161699786838e-18 0.01182608695652179 -0.02252422169756047 0.01084709347793897 -0.001 -0.01558724504646831 0.01954578706170077 -0.001 -0.005563023348907778 0.024373197804545613 -0.001 0.0055630233489079636 0.02437319780454557 -0.001 0.0155872450464684 0.01954578706170069 -0.001 0.02252422169756051 0.010847093477938882 -0.001 0.025 -8.269460797427575e-17 -0.001 0.02252422169756045 -0.01084709347793901 -0.001 0.01558724504646831 -0.01954578706170077 -0.001 0.005563023348907824 -0.024373197804545603 -0.001 -0.005563023348907896 -0.02437319780454558 -0.001 -0.01558724504646836 -0.019545787061700723 -0.001 -0.02252422169756047 -0.010847093477938961 -0.001 -0.02252422169756047 0.01084709347793897 -0.25 -0.01558724504646831 0.01954578706170077 -0.25 -0.005563023348907778 0.024373197804545613 -0.25 0.0055630233489079636 0.02437319780454557 -0.25 0.0155872450464684 0.01954578706170069 -0.25 0.02252422169756051 0.010847093477938882 -0.25 0.025 -8.269460797427575e-17 -0.25 0.02252422169756045 -0.01084709347793901 -0.25 0.01558724504646831 -0.01954578706170077 -0.25 0.005563023348907824 -0.024373197804545603 -0.25 -0.005563023348907896 -0.02437319780454558 -0.25 -0.01558724504646836 -0.019545787061700723 -0.25 -0.02252422169756047 -0.010847093477938961 -0.25 -0.025 3.06161699786838e-18 -0.23917391304347832 -0.025 3.06161699786838e-18 -0.22834782608695658 -0.025 3.06161699786838e-18 -0.21752173913043482 -0.025 3.06161699786838e-18 -0.20669565217391309 -0.025 3.06161699786838e-18 -0.1958695652173914 -0.025 3.06161699786838e-18 -0.1850434782608696 -0.025 3.06161699786838e-18 -0.1742173913043479 -0.025 3.06161699786838e-18 -0.1633913043478261 -0.025 3.06161699786838e-18 -0.1525652173913044 -0.025 3.06161699786838e-18 -0.1417391304347827 -0.025 3.06161699786838e-18 -0.130913043478261 -0.025 3.06161699786838e-18 -0.1200869565217393 -0.025 3.06161699786838e-18 -0.1092608695652176 -0.025 3.06161699786838e-18 -0.09843478260869594 -0.025 3.06161699786838e-18 -0.08760869565217426 -0.025 3.06161699786838e-18 -0.07678260869565257 -0.025 3.06161699786838e-18 -0.06595652173913082 -0.025 3.06161699786838e-18 -0.05513043478260903 -0.025 3.06161699786838e-18 -0.044304347826087206 -0.025 3.06161699786838e-18 -0.03347826086956541 -0.025 3.06161699786838e-18 -0.02265217391304362 -0.025 3.06161699786838e-18 -0.01182608695652179 -0.0011941758684901951 -0.0009523234767664636 0.001 -0.01002422169756048 0.00799405004806207 0.001 0.005563023348907904 -0.01155173701363864 0.001 0.01063233581656267 0.008479004875370027 0.001 -0.01060622443890429 -0.0084581817465404 0.001 -8.372310706973276e-5 0.01376878470020991 0.001 0.01340494237707782 -0.0031454668249109277 0.001 -0.003531936011790306 -0.014933139431922671 0.001 -0.015344664148701961 -0.0001204468686432712 0.001 -0.00781455330000162 0.016420454903629568 0.001 0.01426985811750366 -0.01127252109454728 0.001 0.00798910869878697 0.0163043822532646 0.001 0.01767334127872221 0.004160738697324906 0.001 -0.0011941758684901951 -0.0009523234767664654 0.0 -0.01002422169756048 0.007994050048062066 0.0 0.01063233581656267 0.008479004875370025 0.0 0.005563023348907905 -0.01155173701363864 0.0 -0.01043993794137748 -0.00832557268983231 0.0 -8.372310706973174e-5 0.01376878470020991 0.0 0.01340494237707782 -0.0031454668249109303 0.0 -0.0035177960034972113 -0.01492186315159035 0.0 -0.01533052414040886 -0.00010917058831095331 0.0 -0.007814553300001617 0.016420454903629568 0.0 0.00798910869878697 0.0163043822532646 0.0 0.01426985811750366 -0.01127252109454729 0.0 0.01767334127872221 0.0041607386973249024 0.0 -0.01514250814615284 -0.01989232130857771 0.2198184783701315 -0.006763404339325602 -0.0240677452567288 0.22489954797896788 -0.009642611545555102 -0.02306555966330597 0.21191235455678903 -0.01580972723719637 -0.01936627286509852 0.2291154047296292 -0.008490282190007092 -0.02351414698291325 0.03823156692108373 -0.005498430069682654 -0.02438785080257811 0.02510742681855492 -0.01508778153814475 -0.01993386185005852 0.03121048127449911 -0.0149718590486368 -0.020021074812001292 0.021569496292585432 -0.02203935476678086 -0.01180113729536157 0.02707246583480837 -0.02379124997198829 -0.007679610977801357 0.037309550225467294 0.02249968260647413 -0.010897902670143721 0.1794017819753592 0.01891150751536792 -0.01635099029099409 0.1862421269869326 0.02378976438452398 -0.007684211770171003 0.188573753702402 -0.008801628446252046 0.02339938752818387 0.1833059099843079 -0.007664081242996409 0.023796257241439262 0.17494198715805748 0.00310432329663768 0.02480651480700086 0.1809682762658176 0.01864641991794453 0.01665265817350737 0.2263066675768163 0.01209926331402825 0.021877107378668922 0.2375724716337244 0.00948020945089663 0.02313278255565314 0.2238788756693823 0.02481133294708301 0.003065576192005818 0.01077323600286664 0.02383662580916347 -0.00753759046605226 0.016602693468084632 0.02476871187287621 0.003392773520063058 0.02162132567354082 0.015682259100470382 -0.0194696366043569 0.2034546678412808 0.01865937961879126 -0.01663813547972962 0.2154306745076798 0.02264723717293924 -0.010587853816172521 0.20635129018189638 0.024095377188326862 -0.006664292772099492 0.00847339134209575 -0.02348627068710664 -0.008567093393441864 0.18798121842731721 -0.016931942372773862 -0.01839318698554074 0.1857146610011311 -0.02324263251251685 -0.009207607392156487 0.1790464261227713 -0.01842075014951832 -0.016901951482862 0.1718899194126829 -0.023724332761931043 -0.00788390988033004 0.1701843318616948 0.02495389969335665 -0.0015175276254140771 0.044530939332478446 0.024740312071695372 0.003594017055486036 0.05260541154897302 0.022691236018068873 0.01049322676645722 0.04259274413616667 0.02085295028274232 0.01378965063029071 0.056263096540288805 0.02499560119015185 0.00046895750647536733 0.1366805784878284 0.02485021367077966 0.002732559334505946 0.14921984418983 0.02294772742112034 0.009919768455259494 0.13858563328834628 -0.0219264983793925 0.01200952408792697 0.1583773554758911 -0.02280867247896492 0.01023545112573492 0.17051225950867563 0.01485051896470573 -0.02011124278802569 0.07737606922783576 0.012721208478991651 -0.021521404573912713 0.06732103342247034 0.005180388720398266 -0.02445738278527714 0.07743751885964573 0.0025834126608543107 -0.024866161324654388 0.06809285876775785 -0.0230063089833519 0.009783135845041799 0.04985633942536559 0.02327663174575546 0.00912131649338455 0.1921074686189032 0.02346376909526909 0.008628530572692847 0.20505953566375168 0.019073297207043118 0.01616197183674694 0.2003840772775969 0.01070520910718059 -0.02259200075184882 0.0583078765399928 0.01935553342987891 -0.0158228734951917 0.05798589551968977 -0.02343881050207451 0.008696100404655042 0.1803388414485135 -0.0175998325465915 0.01775516528596505 0.060858249
[...]
			<PointData>
				<DataArray type="Float64" Name="abs mode" format="ascii">
					18.560006409852683 18.62814072584165 3.576293355969427e-14 18.900606927783695 56.052156234525334 18.55132561366716 18.55149684819206 18.55247973204205 18.55785244497951 18.557796027457126 18.5579049968922 18.56179273421697 18.566872556096385 18.56705896807043 18.567197533396936 18.57415652004994 18.574232058200277 18.57348108740969 18.61638705510061 18.61612706316599 18.61704040573233 18.623592535876007 18.62361160473922 18.623564833494168 18.628282198606914 18.63313776066799 18.633326348316103 18.633072845866334 18.639432613281773 18.639810702746278 18.6398724743821 3.271238711379084e-14 3.0549356482071084e-14 3.039780928129834e-14 3.274507513638558e-14 3.34791622219391e-14 3.2958363915863753e-14 3.4077980902708903e-14 3.321112769009418e-14 3.251258251347305e-14 3.138215464303838e-14 3.0846287543842155e-14 3.133246527059854e-14 3.2631343899167054e-14 0.8559899034432921 1.7052889862763578 2.5765487539347194 3.426027767753694 4.288259387499635 5.138254776159848 5.980492362708293 6.8189256978411015 7.665259512934161 8.494273738294792 9.321289075271705 10.150124083951436 10.963108590245584 11.760487949831827 12.558938359820367 13.344210133620718 14.118259175458764 14.891646884957744 15.65038984096806 16.38894875379784 17.13345841133454 17.851357014611246 18.906484940522695 18.902998102132184 18.90355969656361 18.897064553444505 18.89854590860507 18.89843631967025 18.894221183487545 18.88496948540737 18.885422492469843 18.886081020026236 18.87354258578627 18.875602214090843 18.875369542928983 56.05228356644401 56.052237054929805 56.05222100552482 56.052324707268006 56.052364635800274 56.052497786631015 56.05253033969087 56.05264822348251 56.052643171912294 56.05263018782583 56.05264867580157 56.05257819426208 56.05235080760498 55.97302540699902 55.73511391722361 55.33413737854722 54.78219377517862 54.06619706743264 53.20123042904433 52.19934427927704 51.03039417595587 49.719572677391305 48.25598452175014 46.67982888419728 44.95771046143737 43.09093615112272 41.1345328899196 39.038911263464655 36.84172898646388 34.54656405966231 32.12712296956995 29.62810606073212 27.077931375074662 24.38657627651561 21.681048673736342 18.562868017078067 18.566009900525405 18.56125962652767 18.56451715220185 18.559606519579646 18.565898134936262 18.562499810083093 18.55919298094351 18.562916512128478 18.57007666501046 18.560962922991006 18.565848509813755 18.564601442833712 18.62795778712481 18.63108775809187 18.629450715191844 18.626223873207426 18.624791678283973 18.63096442388441 18.62748342366118 18.624281806986897 18.628051727418427 18.635178289904335 18.630878337064175 18.625935578158867 18.629490991651856 2.381985359780763 1.9845760772139542 3.0179388445567157 1.6523524484553136 16.063593744792215 16.95830099697825 16.546330340301147 17.201984650258744 16.830971884347797 16.126542132664177 5.578654903458278 5.0423893396986825 4.859399151774219 5.269310432920056 5.927172243050606 5.451027499256192 1.8687546099775048 0.9857420946633157 2.066884737112353 17.927688838487303 17.539450537166083 17.195801420069103 3.684719026247787 2.7370492018785937 3.455053678478041 18.076832989489226 4.907869478474732 5.08042062810375 5.608273669757709 6.163958374953465 6.296955639667085 15.625508814606903 15.066906763794652 15.764475084146378 14.808155934769724 8.885612750389088 7.928433813218288 8.740597365788377 7.216177740280622 6.266457452361921 13.296687628579315 14.026050232944646 13.294659375957675 13.972181162833355 15.261026850591778 4.579697910489005 3.5671414141228914 3.9340225743266015 14.671905315567455 14.693825651653551 5.4994326877424795 14.478620263677985 14.390329018358543 15.138422061925361 15.859215762672969 15.81695038629245 13.95989534212228 11.50219540447669 11.615331334865136 12.33935289389524 16.046793989878783 15.282187218184418 15.433103682124877 4.306078311471241 9.196559466445835 8.321577931978734 8.95685938781171 8.082209464145881 9.871152536022427 10.472293729343942 10.567967913118256 6.2856691328949665 6.526736516266518 7.237344376703285 14.693864737134534 13.758912703968022 14.391853281226476 8.79146495757108 2.584785126621299 1.8283275554908232 2.572757631188246 1.5987596622121805 4.631236561000891 16.684805607864796 16.978767852051487 16.26135376180714 2.0498021758067906 17.351535830682728 14.43441770049232 13.797254560046152 16.39288516521406 13.799102604191162 17.98554310498373 15.523041289055161 11.768543626651446 11.13775794859571 10.663041681739822 17.753219656901475 3.02618612779668 2.5069274532077968 15.965667388850482 17.68217146696749 13.275524560091394 12.810098830324232 16.705854230187526 17.8596096469278 15.100540159637244 14.583320223129956 8.416225238916871 8.430925534397977 9.289833075016496 15.351008988238958 9.804845181403723 9.670567270775871 10.46788884440474 13.2267542720256 11.884121537186907 11.30755193673612 12.160978424566327 11.069223810360427 17.38441330535868 16.97519402277057 16.584684826469985 10.452776952330126 6.599791914696265 6.219065111146219 8.667428316713089 9.264794439278838 9.525534759899841 10.202584257159405 9.399752259665926 8.657400806771303 0.8984529151096019 2.329569818609771 1.6297853364325392 0.9589411134986475 17.8224000326938 1.3608571960242746 0.7232574932721558 2.5639754910354036 9.95766897737582 1.6791019327246286 13.902207404903775 13.07224643088228 4.7611127962109565 4.734129445663892 5.601684772912048 14.492815977496342 0.7495699918798321 0.8940802890839775 1.7347008812303661 17.790184889402806 11.245553995766993 6.115243549017147 6.308160451114276 0.9089108122995824 1.8008444959601009 0.7238343547662336 5.317657163882361 17.878309969478675 0.965589576541785 17.382184361954536 3.9053154373416503 16.984792960060584 3.0406650775770054 9.607336701910635 10.063667915781197 10.484399388634424 9.369071481260484 7.059762007500739 16.293526159625795 4.609935946259962 3.89536079158408 4.573772141238869 7.559626213143681 7.663213655387749 7.7305595499330035 8.692504546777869 13.182527137940488 13.70985544856394 2.877097699773395 13.291291849647944 13.783719467435036 13.040850116120628 17.76519791462587 16.37159404578105 15.699715531742246 17.43642147134891 18.050338755775698 0.6158256918246912 1.3502555610142668 14.382421613657074 15.160889492435889 15.012730538302465 15.511780965502915 15.748622135832143 15.100105639314615 13.791258758690189 12.292278453315589 7.163661389379359 7.880505181636796 7.86274239790674 12.332447984737929 12.778137675393117 7.3200450046136005 11.11688995057373 1.209291438191845 0.6149176493306513 16.902883119389646 16.533708947628554 16.125835634896386 17.234925028171737 3.963622271776831 3.937449312794389 3.240876172755055 2.81984851598039 12.763656696386615 13.18430010581275 12.55695345166661 15.151008913809429 2.620041113607123 12.984054296918606 14.169727877470773 13.13580528251978 4.222562782067819 3.2970369323420026 7.833229130851116 2.7963306553822216 10.483635794498356 8.650260028712092 12.079321834354841 3.9766563865392146 1.837315766015339 1.2793327134613757 4.077418346242538 4.697367025500812 6.696225317269153 6.992062512278832 6.64984845694543 8.215788052330144 1.4156892029389185 12.021864702361011 11.271506709470701 11.917321659693002 11.257801014036065 10.693185862078092 14.525618654713782 14.395712245611278 15.310161134040229 5.088925008767589 5.6207855300975 4.663663434536588 8.341356829841796 7.851815753039434 0.6964563973536992 1.007097908185359 7.556736802833635 4.045769108729894 3.327684501301389 9.091495663902409 0.8451224160057719 5.57511928670805 12.247127219455923 0.5622865114389535 11.681851615981111 10.993364108568786 11.754843611484898 10.812849073920304 2.041820245465564 8.52676794396989 7.540369456351192 8.011235679659489 6.965220935127322 9.586804884429897 10.393820802982887 7.061317216876432 7.0058127557456435 4.40464170190297 3.7889020355015295 8.095257350870925 7.3877903810198005 6.401367065090502 12.707497500044482 12.69418934790759 11.142328257758722 16.114587418556663 13.84708734429953 2.589246280072095 6.733754468648078 12.480391533443447 5.657925694556731 13.648641257970185 6.47879614233507 5.574566084194818 11.392719117097624 11.972037548655756 13.59308617824755 4.812211964435109 11.95044235102466 12.543182153086075 3.5461269198079752 17.77366150839511 9.04208105764982 3.3820533956019996 9.333238690278968 9.842906505303631 5.677789862434253 6.110959837366106 10.969839725418598 11.201018543347885 11.64021309299878 12.592634823915207 16.201956178080668 16.41903129335489 9.417572957053006 10.355358223356765 9.545966829719886 9.93954297562115 17.978382032354617 10.567501904763152 10.022175712409467 10.67947993672259 16.89191441419466 5.155358078376526 9.957436832411688 3.2606833673261974e-14 3.27954412561153e-14 3.2582202903511355e-14 3.3040106484950415e-14 3.267021545274928e-14 3.221490009942808e-14 3.295588565059496e-14 3.327827375216674e-14 3.327554313657022e-14 3.399483017713465e-14 3.3724610394937145e-14 18.88857658099352 18.885506867137995 18.886758539750517 18.890237323254343 18.891530255335603 18.885650633441035 18.88903011094109 18.892289652458647 18.88860552158402 18.87985287695053 18.89027292483387 18.885659104247342 18.885772843229912 55.433370417413286 55.629025820599765 55.094569808772206 54.003621974895744 54.07301665178244 54.588506439661174 28.22382689226133 25.02195940629802 26.511040922354315 24.13120702503099 25.48916431408695 27.994566529681197 42.01398674558636 40.42341517847191 39.826859219068616 42.51913387942019 55.67382881331908 55.94715057408029 55.588996450257035 49.83781841356687 50.72232067631531 54.58588318372951 55.24151048506766 54.76099854178483 52.831599020647026 51.81956758111339 52.88897004912751 35.062690599061604 35.67807391909732 36.88371737618083 53.77749948903243 54.64589870146473 54.299070417637935 43.20625025534064 44.536829310969836 45.43548135182772 29.734001836781143 31.5648739710144 29.243419213703127 32.41175782406572 37.69182072142219 53.30554226171621 54.04959034726391 53.097721544024715 46.06501084595932 47.44362153203534 47.26695470009926 30.924461563386156 54.75504113205099 32.77323050778166 35.69709597063344 33.869558288147154 47.86635127332741 49.1668456472717 48.077949048650325 53.37015451477056 44.77611434775471 45.96258514125509 46.5991363138842 28.919635488157436 31.329900687134494 29.064597008113928 44.01743447077399 33.35306872712085 33.70829072688566 28.27260071478609 30.947840857500378 30.356912409790514 21.387685154317012 22.868638149504875 24.156704492197367 49.436901905687094 29.340483327534944 31.18224889613445 29.959527940620234 55.32566960438532 55.69006943279931 55.334105333655415 32.75998215983648 55.77539660681624 51.09569714457341 51.72119927247426 47.48540105674967 38.12135545061781 37.377609205714684 20.805502016444013 21.158313949847102 23.573622954832494 22.330510396931672 53.70166833899693 46.55126664233108 44.381246822644975 45.84157444915837 52.7123138075447 47.70546338671095 26.021353436437032 24.95173187025078 27.525641648832302 46.037684499233485 47.43078378148286 25.947605508797377 21.655643107196152 49.38941401451587 55.370008874250054 28.54792333078153 27.057185341172836 52.29752227136181 55.685610619892024 55.601168653342405 55.19069692169959 48.33852743175238 48.482101562420475 46.9299216923839 38.31062996838638 37.288423397969865 39.15689342058592 37.17770232673173 37.752882673748616 36.06361577035567 30.629760004976173 37.00918405763681 35.56000318474929 37.70755751297776 39.757060022202175 40.007800950589946 41.01493173615585 39.41409420583952 23.45910696256123 24.971438346974406 26.38378436265875 39.649027656328336 38.43823386384315 49.89844546423409 49.570690837671044 49.65552117453579 46.413768737012525 44.9065989056539 46.5721567118315 47.993139125089996 55.96550403494576 50.35859153795993 49.921732544701364 21.783430167464626 40.99252213018145 42.09541816289132 42.84064562134302 55.46428397988291 55.76361714764419 55.85182016458942 55.995685803583946 55.33992322826225 55.746343467805445 21.912630249369307 42.748937306816316 43.548185381405354 44.40615656601727 42.00536889324293 55.96281764255941 55.70002591769913 55.99553414566709 49.080511388955074 48.79498222424984 21.584131809031405 23.466426541340066 42.24038663022669 44.06645869005238 42.338391220958655 24.935361464138776 55.050341672877074 53.5015570227997 53.40584765918634 55.991805050273214 55.966648078060004 55.72625992622121 27.41530146692053 53.615470281444594 54.42931452321982 53.67830030163144 34.840984317350134 32.90079615619848 35.626870981224094 55.30696091853605 38.45942699031572 55.15491797899776 22.014999220318654 54.54494004729772 27.14039241796016 29.453832494946862 23.25721663032609 20.904927748183994 35.09874115518617 36.59713208018877 37.79394953304878 39.14728627673215 33.534386523210316 31.255540892420637 31.7341263733666 30.0897785437828 31.488040764063385 48.67020847426168 52.60694568094814 52.65942104190552 51.69459705422844 52.61404206444818 33.564428320506984 51.510639488873146 52.10780555685911 51.81865735760041 43.26718414160338 45.17372942564806 51.847354725319086 52.64302245360099 56.01166614937482 52.59991224052355 54.33015237266249 54.89810346660585 55.893622990100646 31.287620329582765 44.52771074202717 52.99627409625811 47.964975434604575 55.79426125626501 49.12106582632464 22.049424754865814 50.34160054766096 25.23473713689563 26.565548250753476 28.00008866349932 24.01548540436084 32.92317491011094 34.44734488758614 21.97370817902169 55.87480242840248 55.96230216891472 46.002842206355474 44.16842868196914 54.074432889402644 54.86239959117813 55.83744457511488 33.28799580336144 33.694510120771525 54.3172607472266 54.254061399339484 53.60786705992163 55.621510732520555 55.94782648310778 51.24561138526628 30.761489805576954 55.984200732201 40.30031918693344 42.33711948140649 40.74167033052395 42.38089350161384 50.77313945470964 41.42888225131837 55.32284525025655 53.082543857908746 56.000735856205914 55.94321405240103 53.469294658476024 55.9747895617266 38.726601805605426 40.92917737318773 54.225598882275115 56.018404698914104 41.338444812793654 54.85162548341935 43.026475074391314 41.15341585655341 43.424445924874675 55.246596759098416 49.70763722336118 50.70763949895526 37.21630169300082 51.580906067709975 33.03270018966799 35.03645138651713 46.67231932312589 52.5828433222333 52.72136432720137 51.799006961599375 53.71177602822475 53.47336977358133 49.986852180904485 48.42636588283499 48.12325335206624 46.90891445127942 35.95288141963647 50.53752613133426 50.78135588368108 28.03677411733943 21.201569377617542 51.01961465923064 51.135437889831486 51.966603278898596 48.6565350342967 49.27805423118442 50.36637071066549 49.07595094171614 51.7340254372535 45.82554088263045 35.5520088735481 36.11891197171745 55.05977665749993 40.46025030231547 54.816365571317384 47.35944286005432 50.81546919222445 54.677125288871295 50.55914152443525 38.91018743849486 27.734390286521354 40.79879969933649 26.97145307492678 25.272935249622506 45.49653750096694 44.002307548464465 45.27261448093908 43.555403077693406 52.591313216030755 53.62977070894566 43.80410615841108 56.052456256550606 56.05242875084723 56.052729877410684 56.05240781168749 56.052329402782114 56.05251391065736 56.052600802541605 56.052297382181436 56.0523225925818 56.05268748091251 56.052524246492 18.606594765831865 18.597660169020024 10.904906512216167 4.963283981832905 13.39680920864177 15.33391937065979 2.2952024114227036 8.04866926151547 9.488066352360649 6.513134949963702 16.97577417398425 12.171427646445762 3.6316575904454056 1.227613214430581 9.920553321933623 3.382547017861296 11.705772875358042 3.1739379122390776 5.97661606297938 7.087935201503285 7.156579807985931 12.40197555193071 8.954662532458569 1.3905329281672136 14.336941861686139 8.97255435518917 1.2748492838630094 14.38860594225242 10.121693137086693 5.776005856474239 14.428313241789361 11.69172863580806 7.345807120526907 2.9998322409181233 6.190698535758075 16.14535671678179 5.5550324653969865 16.165115867718985 10.168895887754806 4.418876693380695 4.249589077819106 5.241195606603395 4.264719216241785 5.374293522751357 16.1130515511221 10.816727866995002 7.454112372449903 11.360748925684218 10.41110785015773 11.318216916077358 12.993351029737493 12.77294204703997 2.6642380810856667 17.66731156632786 2.5816684366814635 17.638231658057794 8.55989661366716 8.38308831372353 4.495321532236984 12.759107238479821 2.425901205731501 17.638195605574815 1.955395834607323 10.850142541077062 2.21580824003265 7.9662648459001 8.38113801282974 13.60240539088474 16.03673814794517 8.320746472214942 13.073411488228661 14.999862680976438 15.062504866235674 13.896099486487733 4.384182457826859 6.639621535946403 0.9762182401563266 10.937504524811994 3.0279668141166405 11.529092132894815 9.296696490902152 13.804104385282367 9.886773679607764 13.257261533672915 15.215903679812309 5.254954496321456 14.928106442981571 5.094388954079748 13.616848102586887 16.706710904243554 9.095256981792323 17.413995342739014 53.24781035434647 43.78507221188954 55.48258791155825 50.71309923209868 30.540330056941468 37.38690083474411 47.574834792055555 24.889920600969617 54.57512982316783 40.72599327175177 34.03927442100281 54.816967061139366 55.89125254048845 52.23407467092407 41.42903660645807 41.76559596987111 55.89071888811449 45.83925220581375 54.14755132930313 33.845717712301976 45.7267624480748 55.876255542772235 55.02835733115884 52.06991730004128 49.18436439685224 49.29863760621443 52.080761765320815 45.68938520651112 49.17020323995564 54.14715193729711 55.014590137863536 27.66652913713261 27.79005612765002 53.73840363319302 52.81150145119687 45.140241675611605 43.056200613755635 27.944706985427672 35.70177799373728 39.36702690647969 39.3951637554141 39.442263469289294 35.22203017895166 44.35140401147377 55.35603679839362 53.16295726548036 47.20948943793259 22.493851315568087 55.24676021370681 42.886973336259864 22.349426441871074 53.7476599490365 43.852974357267854 32.69501223443731 43.22141360373353 53.240315677404475 53.74771344911403 50.20981694453595 55.45766369261494 55.59123974905759 22.481885151787118 36.64109854015484 48.32546583510128 51.45409892608398 28.33534740345784 50.04419623589604 48.308195377539846 50.77035505977245 31.7741386222913 46.776492331155964 51.10000281425555 31.11376087404435 36.20346274684814 46.96661719297231 30.434606179639413 38.23605249463972 37.10274249612089 55.55150457342216 31.43641335625912 51.50035472435023 29.902558865297227 43.43433378663828 52.987342625286686 50.5052417874164 55.90649886912158 47.632395704236494 55.89415036364603 55.57844853571669 25.33808765693511 54.3643518572381 25.86683235431215 55.063363288661144 18.594093295862635 18.764308981302456 18.553521931597672 18.588278300976967 18.546792591758408 18.54772626409926 18.553682519095865 18.55630849009648 18.554517530416494 18.55666081325615 18.562008075696383 18.56344500004915 18.561475336012112 18.565452738286517 18.574632717605805 18.56433181255561 18.5992706775045 18.577222981578615 18.622323696566028 18.58388972954145 18.579546108012593 18.583827989028972 18.612070156134326 18.5810368532513 18.584808117842094 18.61393063174111 18.587786079665374 18.59072558367228 18.590357877314702 18.62191739986316 18.590717541668987 18.62442328456285 18.589193780781827 18.59076473536062 18.623555596805478 18.590741493942968 18.59504949337689 18.624585431457135 18.59658766787608 18.599990614902236 18.631043156243713 18.597684967852437 18.600190492110336 18.59621112948053 18.631891382529602 18.600128064265725 18.63063536458849 18.599733428443656 18.606743546167294 18.63399662054247 18.608354598711752 18.607006570454704 18.610598972623592 18.64260709686002 18.63373111679815 18.77352187096009 18.606641942838394 18.644241365450796 3.803546479076638e-14 3.705740293119507e-14 3.766710580548341e-14 3.708191360208914e-14 3.760321923662548e-14 3.7278858865965026e-14 3.690628582768557e-14 3.6574948917097485e-14 3.879503126823939e-14 3.829396171976578e-14 3.8574824327105575e-14 3.93071623